likely_mpid,expt_gap,formula
mp-1194436,1.29,KCu2BiS3
mp-9868,1.46,KCu3S2
mp-557728,1.9,KCu4AsS4
mp-649472,0.0,KCuPO4
,1.47,KCuSnS3
,1.04,KCuSnSe3
mp-867419,1.89,KEuAsS4
mp-1018137,0.0,KEuS2
mp-463,10.3,KF
,1.76,KFe2BiO5
,1.06,KFeCuTe2
,2.6,KGaSe2
,1.73,KGaSnSe4
,0.0,KH(CN2)3
mp-11462,0.0,KHg
mp-11952,0.0,KHg11
mp-30717,0.0,KHg2
mp-1195253,4.0,KIn(TeO3)2
,3.1,KInGeS4
mp-505412,3.0,KInS2
mp-505700,2.68,KInSe2
,2.3,KInSnS4
,0.0,KLi(WO3)3
mp-562137,6.32,KLiCO3
,0.0,KLu
,0.0,KMo6S7
,0.0,KNb2O5
,0.0,KNb2Se
mp-1202434,3.46,KNb3(SeO6)2
mp-1202170,3.52,KNb3(TeO6)2
,4.0,KNbSe2O7
mp-23959,6.95,KP(HO2)2
,2.14,KPAu5S8
,4.44,KPPbO4
mp-569702,2.08,KPSe3
mp-18625,2.16,KPSe6
,0.64,KRbBi8Se13
mp-14005,0.0,KRuO4
mp-1536,0.9,KSb
mp-1195296,4.64,KSb(SO4)2
,5.4,KSc(SeO3)2
,0.0,KScO3
,1.72,KSi2P3
mp-866651,2.25,KSiBiS4
mp-11604,2.17,KSm2CuS4
,2.3,KSnAuS3
,2.28,KSnAuSe3
mp-1200554,4.06,KTa3(TeO6)2
,0.0,KTa3CuO9
mp-3614,3.5,KTaO3
,1.65,KTbSe4
mp-1188829,1.4,KTeP2
mp-12365,2.95,KThCuS3
mp-976271,6.4,KTi2F7
mp-976257,0.0,KTi5Se8
,0.0,KTm
mp-1095429,2.37,KUClO3
mp-582421,0.0,KUCuSe3
,2.3,KV2I3O13
mp-553910,2.0,KV4Ag11O16
mp-17353,0.0,KV6O11
mp-1194980,3.8,KY(TeO3)2
,0.0,KYb2F7
,0.0,KYbSe2
mp-6652,2.32,KZn4(BO3)3
mp-639149,2.0,KZrPSe6
mp-22470,0.0,La(FeAs3)4
mp-21523,0.0,La(In2Au)2
,1.03,La(InS2)3
mp-14325,0.0,La(Ni2B)6
mp-9886,0.0,La(PRu)2
mp-567203,0.0,La(SiOs)2
mp-5105,0.0,La(SiRu)2
,2.67,La1.86Tb1.14Ga1.67S7
,0.0,La10Mn9O30
mp-558535,2.04,La10Se14O
mp-555465,0.0,La10Si8O3
,0.0,La16Mn15O48
,2.5,La1Se0.14S1.86
,1.0,La2.1Bi5.9Pb2S14
,0.0,La20Cu9O40
,2.4,La20Mo12Cl4O63
mp-14696,0.0,La2B4Rh5
mp-1077929,0.0,La2CuO4
mp-1078132,0.7,La2Fe(SeO)2
,0.0,La2Fe2I
,1.76,La2Ga0.33Sb1S5
,2.78,La2Ga2GeS8
,1.08,La2Ge2Se7
mp-621659,0.0,La2Ge5Ir3
mp-18055,0.0,La2Ge5Rh3
,1.24,La2GeSe5
mp-1197947,0.7,La2HfS5
mp-20760,0.0,La2In
mp-1196301,1.6,La2Mn(SeO)2
,0.0,La2Nb2N2O5
mp-3471,0.0,La2Ni5B4
mp-2292,5.4,La2O3
,0.0,La2PC
mp-571647,0.0,La2PI2
mp-8672,0.0,La2PdO4
,0.0,La2Pr2O7
mp-568375,0.0,La2Rh7
mp-7475,2.77,La2S3
mp-8620,0.0,La2Si5Rh3
mp-30755,0.0,La2Sn5Rh3
,1.02,La2TiCoO6
,3.63,La2V2IO9
,0.41,La2VCoO6
,0.45,La2VNiO6
,1.45,La2YbCuS5
,1.15,La2YbCuSe5
mp-1196943,3.4,La2Zn(SeO)2
mp-1198687,2.01,La2ZrS5
mp-569935,0.0,La3(BN2)2
mp-27330,0.0,La3(OsO5)2
mp-29326,0.0,La3(ReO5)2
mp-4505,0.0,La3AlN
mp-510011,2.0,La3CuGeSe7
,2.54,La3Ga1Ge0.5S7
,1.36,La3GaCuSe7
mp-672231,0.0,La3Ge3Br2
,2.61,La3In1Ge0.5S7
mp-645695,1.26,La3LuSe6
,1.71,La3Mg0.5Sn1S14
mp-1198818,3.7,La3Mo4O16F
mp-866714,0.0,La3NiBr3
,1.92,La3Si1Sb0.33S7
,1.75,La3Si1Sb0.33Se7
mp-879,0.43,La3Te4
mp-9435,0.0,La3ZrSb5
mp-1196490,2.27,La4Cd4In2S13
mp-1203869,0.0,La4Co3O10
mp-1203562,1.0,La4Fe(SbS5)2
mp-1200263,0.85,La4Fe(SbSe5)2
mp-21571,0.0,La4In5S13
mp-1196663,2.07,La4InSbS9
,1.76,La4InSbSe9
,2.0,La5Cu6.33S7O4
,2.6,La5In3(S3O)3
,0.0,La5SmS8
,0.0,La5YbS8
,2.6,La6Sb4(SO4)3
,0.0,La8Mn7O24
mp-1195582,2.3,La8Sb2S15
,0.0,LaAl12O19
mp-21109,0.0,LaAl4
mp-12274,0.0,LaAl4Co
mp-2680,4.1,LaB6
,0.0,LaBPt3
,5.65,LaBeB3O7
,0.0,LaBiAu2
mp-12055,0.0,LaCd2
,0.0,LaCdAg2
mp-542251,0.0,LaCdAu
mp-30590,0.0,LaCu6
mp-6088,3.1,LaCuSO
mp-552488,2.83,LaCuSeO
mp-546790,2.31,LaCuTeO
mp-905,6.6,LaF3
mp-1002133,0.0,LaGa
mp-21201,0.0,LaGa3Pd2
mp-5837,4.4,LaGaO3
mp-4816,2.5,LaGaS3
mp-568574,0.0,LaGeI
mp-24153,0.0,LaH2
,4.76,LaH2NO5
mp-734,0.0,LaHg
mp-20582,0.0,LaIn
mp-22017,0.0,LaIn2Ir
mp-20911,0.0,LaIn5Ir
,2.73,LaInS2O
,0.0,LaMg(FeO3)2
mp-1180682,1.0,LaMg2H7Pd
mp-2306,0.0,LaMg3
,1.7,LaNbN2O
mp-2384,0.54,LaP
,0.0,LaP3
mp-2889,0.0,LaPd3S4
mp-1832,0.0,LaPt5
,0.0,LaRe2Ag
,0.0,LaReB
mp-1065,0.8,LaSb
mp-1024951,0.0,LaScSi
mp-7083,0.0,LaSi
mp-2062,0.19,LaSi2
mp-28795,0.0,LaSi2Ru
mp-30756,0.0,LaSn3Ru
mp-550514,2.0,LaTaN2O
,0.0,LaTb3
,0.0,LaV
mp-1202389,3.58,LaVI5O16
,0.0,LaYbZn2
mp-549589,1.5,LaZnAsO
,0.0,LaZnAu2
,0.0,Li(CuO)3
,0.0,Li(NiO2)4
,2.7,Li0.33Ag1Sn0.67O2
,2.7,Li0.33Ti0.67Ag1O2
,1.95,Li0.5Ge1Pb1.75S4
,0.0,Li11Mn13O32
,0.0,Li12Fe5O16
,0.0,Li13Nb14ZnO42
,0.0,Li13Ti22O48
,0.0,Li14Ti21O48
,0.0,Li15(FeO4)4
,0.0,Li15Mn2O12
,0.0,Li17Nb20O60
,0.0,Li17Ti20O40
,0.0,Li2(FeO2)5
mp-3440,0.0,Li2(LuGe)3
,0.0,Li2(NiO2)3
,0.0,Li23(MnAs)20
mp-4779,7.3,Li2B4O7
mp-10686,0.99,Li2CdGe
mp-1189383,3.1,Li2CdGeS4
mp-1188784,3.26,Li2CdSnS4
,0.0,Li2Co4O7F
,0.0,Li2CrCo3O8
,0.0,Li2CrCuO4
,0.0,Li2Cu2S3
,0.0,Li2CuF6
,0.0,Li2DyIn
,0.0,Li2EuSn
,0.0,Li2Fe2(PO4)3
,0.0,Li2Fe3CoO8
,0.0,Li2Fe3NiO8
,0.0,Li2Fe3SnO8
mp-1105387,1.42,Li2FeGeS4
mp-1105173,1.86,Li2FeSnS4
,0.0,Li2FeWO6
mp-29210,0.0,Li2Ga
,2.64,Li2Ga(GeSe3)2
mp-554782,3.65,Li2Ga2GeS6
mp-3201,0.0,Li2GaPd
mp-16341,0.93,Li2HgGe
,2.46,Li2HgGeS4
mp-1191476,3.45,Li2In2GeS6
mp-1191200,2.3,Li2In2GeSe6
mp-1191903,3.61,Li2In2SiS6
mp-1191817,2.54,Li2In2SiSe6
mp-30344,0.0,Li2InAg
,0.0,Li2LaTl
,0.0,Li2MgHg
mp-12128,0.0,Li2MgIn
,0.0,Li2MgSn
,0.0,Li2MnCo3O8
,0.0,Li2MnCu3O8
,3.06,Li2MnGeS4
,0.0,Li2MnNi3O8
,0.0,Li2MnO2F
,3.3,Li2Mo2Se2O11
,0.0,Li2Nb2(PO4)3
mp-7779,0.0,Li2NdAs2
mp-20106,0.0,Li2NdSb2
,0.0,Li2Ni2SbO6
,0.0,Li2Ni3TeO8
,0.0,Li2Ni5(PO4)4
,0.0,Li2PmAl
,0.0,Li2PmGe
,0.0,Li2PrIn
mp-7777,0.0,Li2PrP2
,2.3,Li2PtO3
,0.0,Li2Si4Ni5O14
,2.68,Li2SiHgS4
mp-7924,0.0,Li2Sn5
,2.32,Li2SnHgS4
,0.0,Li2SnIr
mp-1203622,3.5,Li2TeMoO6
mp-1196881,4.0,Li2TeWO6
,0.0,Li2Ti3FeO8
,0.0,Li2TiMn3O8
,0.0,Li2TlAg
mp-560793,0.0,Li2U(MoO5)2
,0.0,Li2V2F7
,0.0,Li2V3CrO8
,0.0,Li2V3FeO8
,0.0,Li2YbPb
mp-569115,1.1,Li2ZnGe
,1.86,Li2ZnGeSe4
mp-555186,2.87,Li2ZnSnS4
,1.87,Li2ZnSnSe4
,0.0,Li3(CoO2)4
,0.0,Li3(CuO)4
mp-545467,0.0,Li3(CuO2)2
,2.75,Li3AlP2
,3.63,Li3AlTe4O11
mp-23222,0.7,Li3Bi
,0.0,Li3C
,0.0,Li3Co(NiO2)4
,0.0,Li3Co2(GeO4)3
,0.0,Li3Co3SbO8
,0.0,Li3Co4TeO8
,0.0,Li3Cr(NiO2)4
,0.0,Li3Cr3(CuO6)2
,0.0,Li3CrCo3O8
,0.0,Li3CrO4
,0.0,Li3Cu4NiO8
,0.0,Li3Dy
,0.0,Li3Fe(CoO2)4
,0.0,Li3Fe(SbO3)4
,0.0,Li3Fe2SbO6
,0.0,Li3FeNi3O8
,0.0,Li3FeS3
,1.98,Li3FeTe4O11
,3.85,Li3GaTe4O11
,0.0,Li3Mn(CuO3)2
,0.0,Li3Mn(NiO3)2
,0.0,Li3Mn2(CoO4)2
,0.0,Li3Mn2(PO4)3
,0.0,Li3Mn2CuO6
,0.0,Li3Mn3NiO8
,0.0,Li3Mn3WO8
,0.0,Li3Mn4(PO4)6
,0.0,Li3Mn4O8
,0.0,Li3MnAs2
,0.0,Li3Mo2P5O18
,0.0,Li3Ni(SbO3)4
,0.0,Li3Ni2(GeO4)3
,0.0,Li3Ni3(PO4)4
,3.68,Li3PS4
mp-542435,2.9,Li3ScN2
mp-29165,0.0,Li3Si3Ag2
,0.0,Li3Ti2(PO4)3
,0.0,Li3Ti3(PO4)4
,0.0,Li3V12O29
,0.0,Li3V4FeO12
,0.0,Li3V4NiO12
,0.0,Li3VOF5
,0.0,Li4(FeO2)9
,4.9,Li4.5Al0.5Te1O6
,1.79,Li4.5Cr0.5Te1O6
,3.25,Li4.5Fe0.5Te1O6
,4.99,Li4.5Ga0.5Te1O6
,1.97,Li4.5Mn0.5Te1O6
,0.0,Li4Co2Ni3O10
,0.0,Li4Co3CuO8
,0.0,Li4Co5SbO12
,0.0,Li4Cr3NiO8
,0.0,Li4CrO5
,0.0,Li4Cu(PO4)2
,0.0,Li4Fe2Cu3O10
,0.0,Li4Fe3NiO8
,0.0,Li4Fe7(OF7)2
,0.0,Li4FeNi3O8
,2.75,Li4HgGe2S7
,0.0,Li4MgNi3O8
,0.0,Li4Mn(WO4)3
,0.0,Li4Mn3Cr3O12
,0.0,Li4Mn5Cu3O16
,0.0,Li4Mn5Nb3O16
,0.0,Li4Mn5NbO12
,0.0,Li4Mn5Ni3O16
,0.0,Li4NbNi3O8
,0.0,Li4Ni2(PO4)3
,0.0,Li4Ni3BiO8
,0.0,Li4Ti5Cr3O16
,0.0,Li4TiCr3O8
,0.0,Li4V5Cu3O16
,0.0,Li4VF7
mp-555377,0.0,Li4WO5
,0.0,Li5(BiO3)4
,0.0,Li5Co2Ni3O10
,0.0,Li5Co2O2F5
,0.0,Li5Cr2Ni5O12
,0.0,Li5Fe2Ni3O10
,0.0,Li5Fe6(BO3)6
,0.0,Li5La3Nb14O42
,0.0,Li5Mn2Cu5O12
,0.0,Li5Mn3(FeO5)2
,0.0,Li5Mn5(SbO6)2
,0.0,Li5Mn6(BO3)6
,0.0,Li6(NiO2)5
,0.0,Li6Fe3Co7O20
,0.0,Li6Fe9CoO20
,0.0,Li6FeNi9O20
,0.0,Li6FeO5F
,0.0,Li6FeO6
,0.0,Li6Mn5CoO12
,0.0,Li6Mn5FeO12
mp-562387,0.0,Li6Tb2O7
,0.0,Li7(Mo3S4)4
,0.0,Li7(NiO2)11
,0.0,Li7Ca8Nb12O40
,0.0,Li7Ti16O32
,0.0,Li7Ti5O12
,0.0,Li7Ti7O16
,0.0,Li8BiS6
,2.61,Li8GeN4
mp-8469,0.0,Li8IrO6
,0.0,Li8PO3
mp-8424,0.0,Li8PrO6
,0.0,Li8Ti16CuS32
,0.0,Li8TiNi7O16
,0.0,Li9Fe3(WO4)7
,4.45,Li9Ga13(Te7O22)3
,0.0,LiAgF3
mp-30821,0.0,LiAl2Rh
,0.0,LiAl2Tc
mp-10890,0.0,LiAl3
,0.0,LiAlB4
mp-5920,0.0,LiAlGe
,0.0,LiAlRh2
mp-555874,1.6,LiAsS2
,2.0,LiB3
,4.75,LiB9PbO15
,0.0,LiBePt2
,0.0,LiBi2(PO4)3
,3.35,LiBi3(ClO2)2
,0.11,LiBiS2
,0.0,LiCa2Ga
mp-504670,0.0,LiCa2Ge3
,0.0,LiCa2In
,0.0,LiCa2Mg
mp-1192528,1.4,LiCa3As2H
,0.0,LiCaO3
,0.0,LiCd2Rh
mp-6126,4.28,LiCdBO3
mp-22905,9.33,LiCl
,0.0,LiCo(CO3)2
,0.0,LiCo7O7F
,0.0,LiCoS2
,0.0,LiCu2(CO3)2
mp-567097,0.0,LiCu2Ge
,0.0,LiCu3F7
,0.0,LiCu5P3O13
mp-9158,0.0,LiCuO2
,0.0,LiCuPO4
,0.0,LiEr2Ga
,0.0,LiErAu2
mp-541365,1.5,LiEuH3
mp-1138,11.7,LiF
,0.0,LiFe2(PO4)3
,0.0,LiFe2(SiO4)2
,2.64,LiGa(GeSe3)2
,0.0,LiGaAg2
,0.0,LiGaAu2
mp-5854,5.6,LiGaO2
,0.0,LiGaPd2
,0.0,LiGaPt2
mp-5048,2.31,LiGaTe2
,3.73,LiGd5P2O13
mp-13322,0.0,LiGeRh2
mp-696288,4.9,LiH3(SeO3)2
,0.0,LiHf2Ir
,0.0,LiHfPd2
,0.0,LiHg2Pd
,0.0,LiHoAu2
,0.0,LiHoO3
mp-973966,4.27,LiIn(IO3)4
mp-13396,0.0,LiIn2Rh
mp-567787,0.0,LiInAg2
mp-1188392,3.56,LiInS2
mp-20187,2.83,LiInSe2
mp-568466,0.0,LiInSn
,2.3,LiInSnS4
mp-20782,1.46,LiInTe2
mp-11992,0.0,LiLa2IrO6
,0.0,LiLu2Ga
,0.0,LiLu2Pd
,0.0,LiLu2Ru
,0.0,LiLu2Tc
,0.0,LiMg2Ag
mp-12558,0.7,LiMgAs
mp-570213,0.4,LiMgBi
mp-30156,3.2,LiMgN
mp-7555,0.0,LiMgSnPd
,0.0,LiMn(PO4)2
,0.0,LiMn2(PO4)2
mp-1195443,0.0,LiMn4O8
,0.0,LiMn9Se10
,0.0,LiMnCoO4
,0.0,LiMnCuO4
mp-556415,0.0,LiMnO2
mp-26981,0.0,LiMnP2O7
,0.0,LiMnSiO4
,0.0,LiMo3O8
mp-558917,2.8,LiMoIO6
,3.0,LiNb3(BiO3)4
,0.0,LiNi2(PO4)3
,0.0,LiNiP2O7
,0.0,LiPm2Al
,0.0,LiPm2Ga
,0.0,LiPm2Ir
,0.0,LiPm2Si
,0.0,LiPr2Ru
,1.6,LiSb3PbS6
mp-1079885,1.36,LiSbS2
,0.68,LiSbSe2
,0.13,LiSbTe2
,0.0,LiScHg2
mp-973391,2.27,LiSiB6
,0.0,LiSiPd2
,0.0,LiSiRh2
,2.83,LiSm3SiS7
,0.0,LiSn(PO3)4
mp-21894,0.0,LiSn4Ir
mp-11977,0.0,LiSnAu
,3.5,LiTa3(BiO3)4
mp-3666,4.1,LiTaO3
,0.0,LiTaRh2
,0.0,LiThAu2
,0.0,LiTi11O20
,0.0,LiTi3O6
,0.0,LiTiSiO4
mp-12716,0.0,LiTlPd2
,0.0,LiTm2Rh
,0.0,LiTm2Ru
mp-18189,0.0,LiTmSn
,0.0,LiV2NiO6
,0.0,LiV3O4
mp-1018791,0.0,LiY(CuP)2
,0.0,LiY2Ru
mp-12264,0.0,LiYbF4
mp-21242,0.0,LiYbPb
,0.0,LiZn(Fe5O8)2
,4.0,LiZn2GaO4
,3.1,LiZnBO3
mp-7575,1.91,LiZnN
,0.0,LiZr2Os
,0.0,LiZrRh2
,1.27,Lu(InS2)3
mp-12101,0.0,Lu(SiOs)2
,0.0,Lu2AgAu
mp-16490,0.0,Lu2Al3Co
,0.0,Lu2AlTc
,0.0,Lu2CdAg
,0.0,Lu2CdIn
,1.75,Lu2CrS4
,0.0,Lu2Fe2Si2C
mp-14306,0.0,Lu2FeS4
,0.0,Lu2InHg
,0.0,Lu2MgHg
mp-865350,0.0,Lu2Mn12P7
mp-973756,0.0,Lu2Mo2C3
mp-1427,5.5,Lu2O3
,0.0,Lu2TlAg
,0.0,Lu2TlCd
,2.12,Lu2TlCu3Se5
mp-10566,0.0,Lu3BC3
,0.0,Lu3Ga
mp-11733,0.0,Lu3InN
mp-10607,0.0,Lu3TlC
mp-15178,0.0,Lu4C7
mp-542170,0.0,Lu5(Si5Ir2)2
mp-13234,0.0,Lu5Si3B
mp-11752,0.0,Lu7(NiTe)2
mp-11753,0.0,Lu7(TePd)2
mp-1018131,0.0,LuAg2
,0.0,LuAl2Pd5
,0.0,LuAlAg2
mp-11249,0.0,LuAu
mp-3105,0.0,LuBPd3
mp-8371,0.0,LuC2
,3.7,LuCd4B3O10
,0.0,LuCdAg2
,0.0,LuGaRh2
mp-973906,0.0,LuGe2
,0.0,LuHfRu2
mp-1529,0.0,LuIr
mp-1761,0.0,LuIr2
mp-19967,0.0,LuMnSi
mp-6188,0.0,LuNiBC
mp-10192,1.3,LuP
mp-790,0.0,LuPt3
,0.0,LuScRh2
,0.0,LuScRu2
,0.0,LuScZn2
mp-973633,0.0,LuSi2Ni
mp-22440,0.0,LuSiIr
,0.0,LuU2S3O2
,0.0,LuUO3
mp-16043,0.0,Mg(As2Rh3)2
,0.0,Mg(CoS2)2
,0.0,Mg(FeO2)4
,0.0,Mg(FeS2)2
,0.0,Mg(SnO2)4
,0.0,Mg(TiS2)4
mp-568548,0.0,Mg10B16Ir19
,0.0,Mg17Al11Pd
mp-17659,0.0,Mg23Al30
,0.0,Mg2AgIr
,0.66,Mg2Co
,0.0,Mg2CrN2
mp-2481,0.0,Mg2Cu
,0.0,Mg2CuWO6
mp-30650,0.0,Mg2Ga
mp-408,1.67,Mg2Ge
mp-505693,0.0,Mg2GeB2Rh5
mp-1192564,2.02,Mg2GeSe4
,0.0,Mg2MnN2
,0.0,Mg2PdAu
,0.0,Mg2RhAu
mp-1367,2.27,Mg2Si
mp-14793,0.0,Mg2SiPt
,0.0,Mg2TcO4
,0.0,Mg2TiIrO6
,0.0,Mg2V9O13
,0.0,Mg2Zr14O5
,2.7,Mg3(B25C4)2
mp-684027,0.0,Mg3(MnAl9)2
mp-10117,0.0,Mg3(Ni10B3)2
mp-14842,0.0,Mg3(Ni10P3)2
,0.0,Mg32Al36Ag13
mp-7062,0.0,Mg3Al9FeSi5
,1.33,Mg3AsN
mp-569018,0.0,Mg3Bi2
mp-571626,0.0,Mg3Ga7Co2
mp-642855,0.0,Mg3Ge
mp-1559,2.8,Mg3N2
mp-2514,1.4,Mg3P2
mp-542429,0.0,Mg3Rh
mp-625,0.0,Mg3Ru2
mp-2646,0.8,Mg3Sb2
,0.0,Mg3Tl
,0.0,Mg4Sc3(SiO3)8
,0.0,Mg5As
mp-560026,5.63,Mg5B3O9F
,0.0,Mg5Ti13O30
mp-570849,0.0,Mg5Tl2
,0.0,Mg9CuO10
mp-3477,0.0,MgAgAs
,0.0,MgCo2(PO5)2
,0.0,MgCr
mp-1189056,2.36,MgCu2GeS4
mp-1205334,3.2,MgCu2SiS4
mp-30449,0.0,MgCuBi
mp-3522,0.0,MgCuSb
mp-11361,0.0,MgCuSn
mp-1249,11.1,MgF2
mp-20566,0.0,MgIn3
mp-973088,0.0,MgInAg2
,0.0,MgInPd2
,0.0,MgMnO3
,0.0,MgMnRh2
mp-15778,0.0,MgNiSb
,0.0,MgPb3
,0.0,MgPt5
,0.0,MgRh2Pb
mp-9927,0.0,MgRhF6
,0.0,MgSbF6
mp-10184,0.0,MgSbPt
mp-1174,0.0,MgSc
,0.0,MgScAg2
mp-13241,0.0,MgSi7Ir3
mp-3677,4.05,MgSiN2
,0.0,MgSnRh2
mp-1039,3.6,MgTe
,0.0,MgTi11O20
,0.0,MgTi4O6
mp-11498,0.0,MgTl
,0.0,MgV4O6
mp-1124,0.0,MgZn2
mp-19789,0.0,Mn(BW)2
,0.0,Mn(CoO2)4
mp-21823,1.5,Mn(PbO2)2
mp-19231,2.65,Mn(SbO2)2
mp-22576,0.0,Mn(SbO3)2
,0.31,Mn(SbSe2)2
,0.37,Mn0.05Te1Pb0.95
,0.49,Mn0.1Te1Pb0.9
mp-752,0.7,Mn15Si26
mp-7892,0.0,Mn2AlB2
,0.0,Mn2AlO4
,0.0,Mn2CoAs
mp-22289,0.0,Mn2CoGe
,0.0,Mn2Cu(PO4)3
,0.0,Mn2GaW
mp-621925,0.0,Mn2GeS4
,0.0,Mn2Hg5
mp-12659,0.0,Mn2Nb
,0.0,Mn2OF3
mp-1849,0.0,Mn2P
mp-22354,0.0,Mn2Tl2O7
,0.0,Mn2VSi
,0.0,Mn3(OF3)2
mp-16511,0.0,Mn3Al10
,0.0,Mn3Cr3(CoO8)2
,0.0,Mn3Cr3(TeO8)2
,0.0,Mn3NbO8
mp-20362,0.0,Mn3NiN
mp-10198,0.0,Mn3PdN
mp-7070,0.0,Mn3PtN
,0.0,Mn3SbO8
mp-14046,0.0,Mn3V2(SiO4)3
,0.0,Mn5As4
mp-704981,0.0,Mn5Ge2
,0.0,Mn5O3F5
,0.0,Mn5O7
,0.0,Mn7O7F
,0.58,MnAl3
mp-5491,0.0,MnAlAu2
mp-22240,0.0,MnAs
,0.0,MnBe2Co
,0.0,MnCdO2
mp-19809,0.0,MnCoSi
mp-22221,0.0,MnCu2Sn
,0.0,MnCu3
mp-560902,9.9,MnF2
mp-4238,0.0,MnFeAs
,0.0,MnFeCoGe
mp-601285,0.0,MnGaNi2
mp-569151,0.0,MnGaPt
mp-610972,0.0,MnGePd
mp-4664,0.0,MnGeRh2
,1.45,MnIn2PbS5
mp-22673,0.0,MnInCu2
,0.0,MnNbO4
mp-11500,0.0,MnNi
mp-1102690,0.0,MnNiP
mp-19006,3.6,MnO
mp-510408,1.3,MnO2
,0.0,MnP2
mp-569522,0.28,MnP4
mp-8695,2.5,MnPSe3
mp-2065,0.0,MnS
,0.0,MnSb3(PO4)6
,0.0,MnSbPd
mp-571163,0.0,MnSbRh2
mp-999540,2.5,MnSe
mp-1431,0.6,MnSi
,0.0,MnSiNi2
,0.0,MnSnRu2
,0.0,MnTcOs
,2.0,MnTe9
mp-22792,0.0,MnTePd
,1.9,MnV(TeO4)2
,0.0,Mo2NCl8
mp-542154,0.0,Mo3Pd2N
mp-1743,0.0,Mo5As4
mp-30544,0.0,Mo5O14
mp-1634,1.6,MoSe2
mp-1104707,2.06,Na(GeP)3
,2.08,Na0.5Ge1Pb1.75S4
,1.6,Na0.5Ge1Pb1.75Se4
,2.0,Na0.75Eu1.625Ge1Se4
mp-568580,0.0,Na10(Ga2Sn)3
,0.0,Na11Bi5O16
,0.0,Na11Ti20O40
mp-30794,0.0,Na15Sn4
,0.0,Na19Zr11S30
,7.33,Na2B6O9F2
mp-1020144,7.3,Na2Be4B4O11
,2.37,Na2Cd(GeSe3)2
mp-561075,2.52,Na2CdSnS4
,0.0,Na2Cl
,0.0,Na2Cr7O14
,2.0,Na2EuGeSe4
mp-1190388,3.29,Na2Ga2GeS6
,2.2,Na2Ga2SnS6
,4.19,Na2Gd(PO4)2
mp-17964,2.38,Na2Ge2Se5
,2.68,Na2Hg3(GeS4)2
,2.03,Na2Hg3Se1.49S2.51
mp-31430,0.0,Na2In
mp-1190145,3.17,Na2In2GeS6
mp-1190429,2.47,Na2In2GeSe6
mp-1190138,3.27,Na2In2SiS6
,1.92,Na2In4Se6S
mp-607437,0.0,Na2In5Au6
,0.0,Na2LiTa
mp-1195277,3.1,Na2Mo2Se2O11
mp-1192640,3.56,Na2Nb4Se4O19
,2.4,Na2Pt(IO3)6
mp-648,2.4,Na2S
mp-4770,0.0,Na2SO4
mp-1266,2.0,Na2Se
,2.86,Na2Si2Hg3S8
,2.45,Na2Sn2Hg3S8
mp-2784,2.3,Na2Te
mp-1190141,2.35,Na2TeS3
mp-573581,1.87,Na2TeSe3
mp-6328,0.0,Na2Ti2Sb2O
mp-3488,3.51,Na2Ti3O7
mp-30795,0.0,Na2Tl
mp-23546,0.0,Na2UI6
,0.0,Na2V6O13
mp-541773,0.0,Na2VCuF7
mp-1190476,2.36,Na2Zn(GeSe3)2
mp-1190487,2.93,Na2Zn(SnS3)2
,4.9,Na2Zn3(SeO3)4
,0.0,Na3(WO3)4
mp-542680,0.0,Na3In2Au
,0.0,Na3Mn2(GeO4)3
,4.69,Na3MoClO4
mp-1194849,4.77,Na3MoO4F
,0.0,Na3Re
,3.88,Na3Sn2ClF6
,0.0,Na3Tl
,0.0,Na3UF7
,4.99,Na3WClO4
mp-560158,3.2,Na3Zn(BO2)5
,0.64,Na4Al4Si19
,2.15,Na4Eu(GeS3)2
mp-1103730,2.53,Na4Mg(GeSe3)2
mp-1103351,2.85,Na4Mg(SiSe3)2
,0.0,Na5Cu7O13
,0.0,Na5Fe6(SiO3)12
mp-556070,3.38,Na5Gd(MoO4)4
mp-3017,0.0,Na6CoSe4
mp-9266,0.0,Na6FeS4
mp-19427,0.5,Na7(CoO3)2
,1.5,Na7.36Ga7.24Sn4.78Se24
mp-556538,0.0,Na8(CuO2)5
mp-541787,0.0,Na8Hg3
,0.0,Na8NbO6
,0.0,Na8PO3
,0.0,Na9(WO3)16
,3.6,NaAlGeS4
mp-17868,0.0,NaAsO3
mp-2315,0.32,NaB15
,0.0,NaBi3
,0.38,NaBiS2
,0.28,NaBiSe2
,0.0,NaC
,0.0,NaCd2Au
,1.1,NaCd4P3
mp-1192203,2.93,NaCdAsS3
,0.0,NaCdO3
mp-13459,0.0,NaCdSb
,0.0,NaCeS2
,2.15,NaCeS3
mp-7469,0.0,NaCuO
,0.0,NaEuO2
mp-682,10.5,NaF
,0.0,NaFe2(SiO3)4
mp-18728,0.0,NaFe2O3
,2.35,NaGaGe3Se8
mp-696842,4.9,NaH3(SeO3)2
mp-255,0.0,NaHg
mp-1196607,4.25,NaIn(IO3)4
mp-1194878,4.0,NaIn(TeO3)2
mp-1195769,2.18,NaIn3S5
,2.17,NaIn3Se5
mp-20289,1.9,NaInS2
mp-22473,2.8,NaInSe2
,2.4,NaInSnS4
mp-22483,1.6,NaInTe2
,0.0,NaIrPb
mp-13019,4.5,NaLa2TaO6
,2.61,NaLaS3
,0.0,NaLi3
mp-6533,0.0,NaLu(Pd3O4)2
mp-557436,1.72,NaNb2PS10
,0.0,NaNi2O3
mp-7944,0.82,NaSb
mp-554384,2.17,NaSb(PS3)2
mp-5955,3.76,NaSbF6
,0.47,NaSbTe2
mp-1194561,5.5,NaSc(SeO3)2
mp-4276,0.0,NaSi2Pd3
mp-561232,2.54,NaSm(PS3)2
mp-583168,0.0,NaSn2
,0.0,NaTa3
mp-977244,0.0,NaTi5Se8
mp-1564,0.0,NaTl
mp-1195227,3.9,NaY(Te2O5)2
mp-10838,1.85,NaYb(PS3)2
mp-15056,0.0,NaZr2TiF11
mp-505173,0.0,NaZrCuTe3
,0.0,Nb(Cl2O)2
,0.0,Nb17Ir3S40
,0.0,Nb2(CoO3)3
mp-554930,1.78,Nb2AgPS10
mp-29645,0.0,Nb2Cr4Si5
mp-581967,3.08,Nb2O5
mp-1199265,2.79,Nb2Pb2Se4O15
,0.0,Nb2Sb
mp-570757,0.8,Nb2Tl3CuSe12
mp-17803,1.8,Nb2Tl4S11
,0.0,Nb3(Fe10B3)2
mp-20689,0.0,Nb3B2
mp-568014,0.0,Nb3Bi
mp-27383,1.47,Nb3CuO8
mp-22060,0.0,Nb3In
,0.0,Nb3IrSe8
mp-1932,0.0,Nb3Os
,0.0,Nb3Ru
mp-570751,0.0,Nb3Te
,0.0,Nb3V(PO4)6
mp-15958,0.0,Nb3VS6
,0.0,Nb40N21O16
mp-624253,0.0,Nb4Co2PdSe12
mp-18032,0.0,Nb5Ga4
mp-1188215,0.0,Nb5Ge3
,0.0,Nb5OF14
mp-7250,0.0,Nb6Co7
,3.2,Nb6VSb3O25
mp-554336,2.02,NbAg2(PS4)2
mp-20133,0.0,NbCrN
,0.0,NbCrW
mp-4043,2.45,NbCu3Se4
mp-17272,2.0,NbCuO3
mp-4364,0.0,NbGaCo2
,0.0,NbHO3
mp-28357,0.0,NbHg3F6
,0.0,NbOsPb
mp-11514,0.0,NbPt2
,0.0,NbRu2Cl
mp-571133,1.4,NbSe2
mp-2478,0.0,NbSi2
mp-21248,0.0,NbSiIr
,0.28,NbSnIr
mp-569832,0.0,Nd(Al4Co)2
mp-12060,0.0,Nd(AsPd)2
mp-4999,0.0,Nd(CoGe)2
mp-4228,0.0,Nd(CoSi)2
mp-570399,0.0,Nd(CrSi)2
mp-21070,0.0,Nd(GePt)2
,1.15,Nd(InS2)3
mp-20000,0.0,Nd(NiSn)2
mp-568055,0.0,Nd(PRu)2
mp-505513,0.0,Nd(Re2Si)2
mp-567130,0.0,Nd(SiIr)2
,1.5,Nd1.33Lu0.67S3
mp-1202414,1.98,Nd10Se14O
,0.5,Nd2(SnSe3)3
mp-864790,0.0,Nd2BC
,0.0,Nd2CdIn
mp-5182,0.0,Nd2Fe14B
mp-1189581,0.0,Nd2Ge5Rh3
mp-1196123,0.7,Nd2HfS5
,0.0,Nd2IrPd
mp-540986,0.0,Nd2Ni7P4
mp-1045,4.4,Nd2O3
mp-19930,0.0,Nd2Ru2O7
mp-438,2.65,Nd2S3
,1.7,Nd2Se3
mp-16380,1.12,Nd2Te3
mp-569275,0.0,Nd2WC2
,0.0,Nd2ZnGa
mp-1196300,1.83,Nd2ZrS5
mp-630836,0.0,Nd3(GeRu)2
mp-571330,0.0,Nd3AlC
mp-2015,0.0,Nd3Ge5
mp-21483,0.0,Nd3In
mp-3071,0.0,Nd3Ni13B2
mp-2204,1.6,Nd3Te4
,0.0,Nd3Zr
mp-560086,2.62,Nd4(GeS4)3
mp-3375,0.0,Nd4Ge3Rh4
,1.57,Nd4InSbSe9
mp-567369,0.0,Nd4Mg3Co2
mp-605835,0.0,Nd4MgRu
,0.0,Nd4O3F7
mp-1464,0.0,Nd5Ge3
mp-172,0.0,Nd5Ge4
mp-864793,0.0,NdAgAs2
mp-20880,0.0,NdAgPb
,0.0,NdAl4Ge2Au
mp-16622,0.0,NdAl7Au3
mp-2602,1.04,NdAs
,0.0,NdAu3
mp-1929,4.9,NdB6
mp-3591,0.0,NdBRh3
mp-23300,0.0,NdBi
mp-13008,0.0,NdCrGe3
mp-22666,0.0,NdCu3(RuO3)4
mp-542314,2.98,NdCuSO
mp-974307,2.26,NdCuTeO
,0.0,NdErTl2
,0.0,NdErZn2
mp-18511,6.15,NdF3
mp-4196,0.0,NdFeSi2
mp-11396,0.0,NdGa2Ni
mp-3196,0.0,NdGaO3
mp-21197,0.0,NdIn3
mp-510564,0.0,NdIn5Rh
mp-621362,0.0,NdInAu
mp-22696,0.0,NdInCu
mp-13327,1.61,NdLuSe3
mp-2389,0.0,NdMg2
mp-568207,0.0,NdMg2Ni9
mp-11194,0.0,NdMgNi4
mp-18755,0.0,NdMnSbO
mp-1192562,3.66,NdMoO4F
mp-5383,0.0,NdNiC2
mp-31049,0.0,NdO2
mp-1080485,0.0,NdPt
mp-999335,0.0,NdRh
mp-1586,0.0,NdSb
mp-1018815,0.0,NdSbPd
mp-4854,0.0,NdScGe
,0.0,NdSmHg2
mp-12701,0.0,NdSn2
mp-567214,0.0,NdSnRh
mp-570,0.0,NdTe
mp-2550,0.48,NdTe2
mp-22331,0.0,NdTiGe
,0.0,NdTlAg2
mp-30799,0.0,NdTlPd
,0.0,NdZn2Ag
,2.0,Ni(CN)2
,0.0,Ni(PO3)4
,0.0,Ni23B6
mp-17383,0.0,Ni2Ge
mp-4091,0.0,Ni2Mo3N
mp-21536,0.0,Ni2Mo4C
,0.0,Ni2Mo4N
,0.0,Ni2PO5
mp-17360,3.84,Ni2Te3O8
mp-21008,0.0,Ni3Ge
mp-12798,0.0,Ni3Pt
mp-1050,0.0,Ni3S4
,0.0,Ni3SnN
,0.0,Ni4(BiO2)9
,0.0,Ni4(PO4)3
,0.0,Ni7(P2O7)4
mp-19284,0.0,NiAgO2
,0.0,NiAsO3
,0.0,NiCO4
mp-1099,0.0,NiGe
mp-29752,0.0,NiGePt2
,0.0,NiI
,0.0,NiN
mp-19009,4.0,NiO
mp-2282,0.64,NiS2
mp-10264,0.23,NiTe
mp-20905,2.0,OsS2
mp-758356,0.0,P2H12N7Cl
mp-733876,0.0,P2H4RhO9
mp-2452,0.0,P2O5
mp-2319,1.13,P2Os
mp-28266,0.65,P2Pd
mp-3006,2.12,P2Pd3S8
mp-15953,1.0,P2Rh
,2.4,P2Se3
mp-28860,2.2,P2Se5
,0.0,PH2NO2
mp-23672,6.8,PH6NO4
,3.97,PHPbO3
mp-1102534,1.4,POsS
mp-1101841,1.4,POsSe
mp-7280,1.38,PPdS
mp-3123,0.15,PPdSe
mp-1095584,1.4,PRuS
mp-28885,2.5,PSe
mp-1203346,0.0,PW5O17
,3.44,Pb17(Cl9O4)2
,0.37,Pb1Se0.01S0.99
,0.33,Pb1Se0.5S0.5
,0.26,Pb1Se0.95S0.05
,0.26,Pb1Se0.99S0.01
,0.27,Pb1Se0.9S0.1
mp-20078,1.67,Pb2O3
mp-1192446,3.76,Pb2SeN2O9
mp-22633,2.12,Pb3O4
mp-1194412,3.73,Pb3Se2(BrO3)2
mp-667338,2.98,PbN6
mp-22342,4.3,PbSeO4
mp-1198404,1.31,Pd(IO3)2
mp-393,0.0,Pd16S7
,0.0,Pd2N
,0.0,Pd3(PbS)2
mp-1336,0.8,PdO
mp-20599,0.0,PdPb2
mp-20250,0.5,PdS
mp-13682,0.75,PdS2
mp-21165,0.2,PdSe
mp-2418,0.4,PdSe2
,0.0,Pm2CuGe
,0.0,Pm2IrRh
,0.0,Pm2NiRh
,0.0,Pm2PtAu
,0.0,Pm3I
,0.0,PmCd3
,0.0,PmCdPd2
,0.0,PmDy3
,0.0,PmGaAu2
,0.0,PmHgAu2
,0.0,PmMgAu2
,0.0,PmMgCd2
,0.0,PmMgRh2
,0.0,PmSbRh2
,0.0,PmSnRh2
mp-975729,0.0,Pr(BRu)2
,0.0,Pr(BiO3)2
mp-571008,0.0,Pr(CoAs)2
mp-4810,0.0,Pr(CoGe)2
mp-5627,0.0,Pr(FeSi)2
,1.14,Pr(InS2)3
mp-5423,0.0,Pr(MnSi)2
,1.38,Pr1.29Lu0.71S3
mp-560835,1.89,Pr10Se14O
,1.0,Pr1Te1.9
,0.0,Pr27Se40
mp-2714,0.0,Pr2Au
,0.0,Pr2CdSn
mp-978102,0.0,Pr2Co12P7
,1.32,Pr2Ge2Se7
,1.8,Pr2GeSe5
,0.0,Pr2HgPb
mp-20715,0.0,Pr2InGe2
mp-21870,0.0,Pr2InPd2
mp-558448,0.0,Pr2Ir2O7
mp-15179,2.6,Pr2S3
,1.8,Pr2Se3
mp-2980,3.65,Pr2Te4O11
mp-571302,0.0,Pr3(Al2Si3)2
,0.0,Pr3Cd
,0.0,Pr3I
,1.89,Pr4InSbSe9