likely_mpid,expt_gap,formula
mp-605873,0.0,Pr4MgRu
mp-1484,0.0,Pr4Sb3
,0.46,Pr4Te7
mp-616210,0.0,Pr5In11Ni6
mp-542465,0.0,Pr5Si4
mp-9537,0.0,Pr6Fe13Si
,0.0,Pr7Mn8O24
mp-555896,0.0,Pr9(SbO)5
mp-4308,0.0,PrAgAs2
mp-30181,0.0,PrAl3Ni2
mp-10622,1.0,PrAs
mp-1079915,0.0,PrAu
mp-12569,0.0,PrB4
mp-12762,4.9,PrB6
mp-9028,4.0,PrBN2
mp-13483,0.0,PrBPt4
mp-646,0.0,PrCd
mp-11610,0.0,PrCo4B
mp-6166,3.03,PrCuSO
,0.0,PrErIn2
,0.0,PrErMg2
mp-978101,0.0,PrFeGe2
,0.0,PrGaAu2
,0.0,PrGe3
mp-981551,0.0,PrGe5
mp-1019094,0.0,PrGeAu
mp-20023,0.0,PrIn
mp-570611,0.0,PrInAu2
mp-946,0.0,PrIr2
,0.0,PrLuIn2
mp-13326,1.56,PrLuSe3
,0.0,PrMgAg2
mp-7239,0.0,PrMgGa
,0.0,PrMo3
mp-1192358,3.64,PrMoO4F
mp-975655,0.0,PrNiGe2
mp-11344,0.55,PrO
mp-601,0.0,PrP
mp-1785,0.66,PrSb
mp-1018902,0.0,PrSbPt
,0.0,PrSm3
,0.0,PrSmO2
,2.0,PrTaN2O
,0.93,PrTl2InSe4
mp-999289,1.18,PrTlSe2
,0.0,PrTmTl2
mp-460,0.0,PrZn
,0.95,Pt0.97S2
mp-20828,0.0,Pt3Pb
,0.0,Pt3PbC
,0.0,PtN
mp-762,0.75,PtS2
mp-1115,0.1,PtSe2
,0.45,Rb1.45Sb7.45Pb3.1Se15
,1.33,Rb1.54Cd1.54Bi2.46S6
mp-581457,0.0,Rb15Hg16
,0.0,Rb28(Mg3In17)3
mp-1105212,2.6,Rb2AgPS4
mp-571293,1.53,Rb2BaNb2Se11
mp-1103709,3.35,Rb2Cd(IBr)2
mp-541897,2.58,Rb2Cd(PSe3)2
mp-1200744,4.76,Rb2Cd3(B4O7)4
mp-18556,2.92,Rb2Cd3S4
mp-16818,2.37,Rb2Cd3Se4
mp-29901,2.3,Rb2Cd3Te4
mp-560562,0.0,Rb2CrF6
mp-1195291,1.6,Rb2Cu2Sb2S5
mp-18006,2.08,Rb2Cu2SnS4
mp-568928,0.0,Rb2FeI4
mp-1020707,5.54,Rb2GeB4O9
,2.32,Rb2Hg(PSe3)2
,2.8,Rb2Hg3(GeS4)2
mp-1194625,3.1,Rb2Mo3Se3O16
mp-542629,0.0,Rb2Mo9Se10
mp-555091,0.0,Rb2Na2IrO4
mp-556353,0.0,Rb2NaNiF6
mp-560671,0.0,Rb2NaVF6
mp-15221,2.64,Rb2NbCuS4
mp-15222,2.19,Rb2NbCuSe4
,2.3,Rb2PS5
,2.4,Rb2Pt(IO3)6
,0.0,Rb2SCl6F
mp-561434,2.48,Rb2Sn2Hg3S8
mp-1194540,2.33,Rb2Sn3(SbS5)2
mp-559737,0.0,Rb2Tb3AlF16
mp-441,4.5,Rb2Te
mp-570324,2.14,Rb2TeBr6
mp-28070,1.4,Rb2TeI6
,2.33,Rb2Ti(AgS2)2
mp-7129,2.19,Rb2Ti(CuS2)2
mp-8901,1.83,Rb2VAgS4
mp-15219,1.85,Rb2VCuS4
,4.9,Rb2Zn3(SeO3)4
mp-562230,0.0,Rb3(Cu4S3)2
,2.6,Rb3Ag9(PS4)4
,3.1,Rb3Al3Ge7S20
,2.4,Rb3Al3Ge7Se20
mp-1195363,2.62,Rb3Bi2Br9
mp-1200569,2.34,Rb3Cd(BO2)5
,0.0,Rb3Ga
,6.53,Rb3Li4(BO2)7
,0.0,Rb3Mn
mp-1104938,4.84,Rb3Na(MoO4)2
mp-683902,1.5,Rb3Nb2AsSe11
mp-16319,1.0,Rb3Sb
mp-1194576,2.48,Rb3Sb2Br9
mp-1195452,1.94,Rb3Sb2I9
,0.0,Rb3Sm
,2.21,Rb3Ta2AsS11
,0.0,Rb3Tm
mp-1020643,2.66,Rb3Zn(BO2)5
,2.0,Rb4Ag9(SbS3)4
mp-557618,0.0,Rb4CuSi2O7
,1.18,Rb4Ga4Si19
mp-1195251,2.0,Rb4Ge(PSe3)4
mp-1020896,5.42,Rb4Ge3B6O17
mp-1199088,3.51,Rb4Mo5(PO11)2
mp-542067,1.59,Rb4Ti3S14
,0.0,Rb5(W4O15)2
,0.0,Rb5(WO3)18
,3.99,Rb5B(SO4)4
mp-1020620,6.53,Rb5Li6(BO2)11
mp-556433,0.0,Rb5Tl3O
mp-540855,0.0,Rb6O
mp-585963,2.07,Rb7Th2(P2Se7)3
,1.3,Rb9Bi13S24
mp-17756,2.3,RbAg2SbS4
,2.04,RbAg2TeS6
mp-1195102,2.4,RbAg5(PS4)2
mp-7767,0.0,RbAgF3
,0.0,RbB5(H2O3)4
,7.6,RbBa2(PO3)5
mp-23253,0.0,RbBi2
,0.8,RbBi3TeSe4
,0.0,RbBr3
mp-568643,0.0,RbC8
,3.67,RbCaBO3
mp-1197285,4.2,RbCd(BO2)3
mp-1040,0.0,RbCd13
,3.02,RbCd4Ga5S12
,2.19,RbCd4Ga5Se12
,1.64,RbCd4Ga5Te12
,1.57,RbCd4In5Se12
,1.6,RbCu(SbS2)2
,1.96,RbCu2AsS3
,1.67,RbCu2SbS3
,2.15,RbCu4AsS4
mp-615754,0.0,RbCuPdF5
mp-541407,1.44,RbCuSnS3
,1.04,RbCuSnSe3
mp-20277,0.0,RbEuO2
mp-2064,10.4,RbF
,0.0,RbF3
,1.88,RbGaSnSe4
,0.0,RbGe3
mp-1199892,5.58,RbGeB3O7
mp-1192404,4.07,RbH2(IO3)3
mp-24022,4.84,RbH3(SeO3)2
,0.0,RbHg3
,0.2,RbHgSbTe3
mp-21477,0.0,RbIn4
,2.5,RbIn5S6
,3.1,RbInGeS4
mp-601861,3.3,RbInS2
,2.7,RbInSnS4
mp-1192556,3.9,RbInTe3O8
,6.28,RbLiCO3
,1.53,RbMn4Ga5Te12
,1.76,RbMn4In5Se12
mp-10287,0.0,RbMnTe2
mp-1198591,2.96,RbMoPO6
,0.0,RbNa2NiO2
,1.0,RbNa2Sb
mp-1201687,3.49,RbNb3(TeO6)2
mp-1201070,0.46,RbNb4Br11
,4.1,RbNbSe2O7
,4.35,RbPPbO4
mp-17945,2.18,RbPSe6
mp-9060,0.0,RbPdF3
,0.0,RbSbO3
,1.62,RbSbSe2
,0.38,RbSbTe2
,4.9,RbSc(SeO3)2
mp-1204836,3.88,RbTa3(TeO6)2
mp-10782,2.5,RbTbSe2
mp-569807,0.0,RbTiBr3
,0.0,RbTmO3
mp-559405,0.0,RbU2SbS8
mp-13350,0.0,RbUAgS3
mp-15998,1.45,RbV(CuS2)2
mp-9102,0.0,RbVP2S7
,0.0,RbWO3
mp-1194706,3.6,RbY(TeO3)2
,2.07,RbYbZnSe3
,1.76,RbZn4In5Se12
,2.0,RbZrPSe6
mp-28633,0.0,Re(TeCl6)2
mp-558655,0.0,Re2PbO6
,0.0,Re2RuBr
mp-16877,0.0,Re2W3C
mp-2473,0.0,Re3As7
,0.0,Re3F
mp-1474,0.0,Re3P4
mp-504815,0.0,Re5(NiAs6)2
,0.0,ReBiO3
mp-27340,0.0,ReCl4
,0.0,ReF6
,0.0,ReIr3
mp-190,2.3,ReO3
,0.0,ReOsRu
mp-867296,0.0,RePO5
mp-12605,0.12,ReSi2
,0.0,ReSn3
,1.5,Rh0.67S2
,0.7,Rh0.67Se2
mp-17173,0.8,Rh2S3
,0.0,Rh3Pb
mp-555277,0.0,Rh7(PbO5)3
,1.5,RhS3
mp-1192175,0.6,RhSe2
,0.7,RhSe3
,0.7,RhSeS
,0.0,Ru3Cl
mp-22850,0.0,RuCl3
mp-2030,1.8,RuS2
mp-1922,1.0,RuSe2
mp-27236,0.0,Sb2I2F11
mp-2695,0.2,Sb2Os
,1.8,Sb2PbSe4
mp-20928,0.3,Sb2Ru
mp-6997,0.0,Sb2Te
mp-27290,0.0,Sb2XeF14
,2.61,Sb3IO4
mp-621960,0.0,Sb4Pb4S11
mp-556869,1.95,Sb5IO7
,0.65,Sb6Pb4Se13
,0.8,Sb6Pb6Se17
,2.72,Sb8I2O11
,1.6,SbAs
mp-1102833,1.2,SbOsS
mp-1101771,0.4,SbOsSe
mp-578882,2.0,SbPb2S2I3
,2.67,SbPbBrO2
,2.48,SbPbIO2
,0.0,SbPd3
mp-1078755,0.0,SbPt3
,0.0,SbRh3
mp-1102395,0.9,SbRuSe
mp-22971,2.17,SbSBr
,1.84,SbSeBr
mp-28051,1.25,SbTeI
mp-1103213,0.05,SbTeOs
,0.5,SbTeRh
mp-1102857,0.5,SbTeRu
,0.3,Sc(CuSe)3
mp-11438,0.0,Sc(GaFe)6
,0.0,Sc(TiN)9
mp-1025365,0.0,Sc(VGa2)2
mp-21931,0.0,Sc11(AlGe4)2
,0.0,Sc14Cu14O37
,0.0,Sc2(PO4)3
mp-10911,0.0,Sc2Al3Ru
,0.0,Sc2CuRu
,0.77,Sc2Fe
,0.0,Sc2FeB2Ir5
,0.0,Sc2GaAg
,0.0,Sc2GaIr
,0.0,Sc2MnC
mp-401,2.0,Sc2S3
,0.0,Sc2TlTc
mp-30652,0.0,Sc3(MnGa3)2
mp-31027,0.0,Sc3(ReSi2)2
mp-10133,0.0,Sc3BPb
mp-28733,0.0,Sc3C4
mp-4755,0.0,Sc3Fe2Si3
mp-8577,0.0,Sc3GaC
mp-21035,0.0,Sc3PbC
mp-541558,0.0,Sc4Ge6Rh7
mp-607138,0.0,Sc5Bi3
mp-31025,0.0,Sc5NCl8
mp-510209,0.0,Sc5Pb3
mp-11201,0.0,Sc6FeSb2
mp-10446,0.0,Sc6NiTe2
mp-11754,0.0,Sc6Te2Os
mp-28321,0.0,Sc7CI12
mp-541594,0.0,Sc8Te3
mp-11237,0.0,ScAg
mp-13383,1.55,ScAg(PSe3)2
mp-973185,3.8,ScAgO2
mp-10898,0.0,ScAlNi2
mp-10113,0.0,ScBIr3
,0.0,ScBPd3
mp-11277,0.0,ScBe5
mp-1211,1.71,ScCd
,0.0,ScCdAg2
,0.0,ScCdHg2
mp-21739,0.0,ScCoGe2
,0.0,ScCoO3
,0.0,ScCrO4
mp-1018149,0.0,ScCu2
mp-3642,3.3,ScCuO2
mp-11412,0.0,ScGa2
mp-10212,0.0,ScGe2
mp-11471,0.24,ScHg
mp-1129,0.0,ScIr
mp-2857,2.6,ScN
mp-3432,0.11,ScNiSb
mp-12480,0.0,ScPPt
mp-1780,0.0,ScRh
mp-10712,0.0,ScRh3C
mp-569779,0.23,ScSbPd
,0.0,ScSbRh2
,0.0,ScSbRu2
mp-3129,0.0,ScSi3Ni
mp-17092,0.0,ScSnPd
,2.67,ScTa2NO5
,3.58,ScTiNbO6
,0.0,ScTiO3
mp-13312,1.51,ScTlS2
mp-13313,0.79,ScTlSe2
mp-13314,0.85,ScTlTe2
mp-13503,0.0,ScZn2
,0.0,ScZn3
,0.0,ScZnNi2
,0.0,ScZnPt2
,1.9,SeS
mp-23492,3.2,Si(Bi3O5)4
,0.65,Si0.001Ge0.999
,0.67,Si0.03Ge0.97
,1.04,Si0.0645Ge0.9355
,1.04,Si0.07Ge0.93
,0.72,Si0.08Ge0.92
,1.13,Si0.109Ge0.891
,0.84,Si0.12Ge0.88
,1.32,Si0.162Ge0.838
,0.8,Si0.1Ge0.9
,1.5,Si0.226Ge0.774
,0.86,Si0.2Ge0.8
,1.91,Si0.347Ge0.653
,0.88,Si0.3Ge0.7
,2.24,Si0.458Ge0.542
,0.9,Si0.4Ge0.6
,0.94,Si0.6Ge0.4
,1.0,Si0.7Ge0.3
,1.1,Si0.8Ge0.2
,1.06,Si0.94Ge0.06
,1.08,Si0.98Ge0.02
,1.09,Si0.999Ge0.001
,1.04,Si0.9Ge0.1
,1.24,Si15(TeP2)4
mp-4720,0.0,Si2Ni6B
mp-28945,0.0,Si2NiP3
mp-505071,0.0,Si2Pd9
,0.0,Si2Ru
,0.0,Si2SbO6
mp-988,5.1,Si3N4
mp-978553,0.88,SiAs2
,0.0,SiAu3
mp-569128,2.0,SiB3
,0.0,SiBi3O7
,0.88,SiGe
,0.0,SiHg3
mp-2798,2.0,SiP
mp-9996,1.89,SiP2
,1.9,SiSb
,0.0,SiSb3
mp-568264,1.72,SiSe2
,0.59,SiSn
,0.0,SiTe2Os
,0.0,SiW3
mp-978678,0.0,Sm(BOs)2
mp-15968,0.0,Sm(CoSi)2
,0.0,Sm(CuO2)2
,1.82,Sm(CuS)3
,0.23,Sm(CuTe)3
mp-13282,2.0,Sm(ErSe2)3
,1.18,Sm(InS2)3
mp-20646,0.0,Sm(MnGe)2
mp-1080144,0.0,Sm(NiSn)2
mp-567600,0.0,Sm(SiAg)2
mp-3939,0.0,Sm(SiNi)2
,1.51,Sm1.82Lu2.18Se6
mp-570141,0.0,Sm2(PPt2)3
,0.7,Sm2(SnSe3)3
,0.0,Sm2AgRu
,0.0,Sm2AlCd
mp-570702,0.0,Sm2Cu4Sn5
mp-1005792,0.0,Sm2CuAs3O
mp-1426,0.0,Sm2Fe17
mp-553121,0.0,Sm2IO2
mp-19816,0.0,Sm2In
,0.0,Sm2IrPd
mp-1192255,1.5,Sm2Mn3(SbS3)4
mp-554770,0.0,Sm2Mo2O7
mp-218,5.0,Sm2O3
mp-672272,0.0,Sm2Pd2Pb
,0.0,Sm2RuAu
mp-1403,2.96,Sm2S3
,2.3,Sm2Sc3
mp-15081,2.3,Sm2Se3
mp-1106376,0.7,Sm2Te3
mp-319,0.0,Sm2Tl
,0.0,Sm2TlHg
,0.0,Sm2TlZn
mp-1198078,1.41,Sm2ZrSe5
,0.0,Sm3(Sb7Te12)2
mp-11222,0.0,Sm3Al
,2.26,Sm3Al0.33Si1S7
mp-1094052,0.0,Sm3AlN
mp-1105337,2.5,Sm3B(SO)3
mp-5447,0.0,Sm3OsO7
,0.0,Sm3Sc
mp-571144,0.51,Sm3Te4
,0.0,Sm3Zr
mp-581770,0.0,Sm4Al23Ni6
mp-1199065,2.23,Sm4GaSbS9
mp-1179485,0.0,Sm4In21Pd10
mp-1196183,2.13,Sm4InSbS9
mp-567957,0.0,Sm4MgRh
,0.0,Sm4U4O17
,0.0,Sm5Br11
mp-672351,0.0,Sm6Br13
mp-2475,0.0,SmAg
mp-979972,0.0,SmAlCu
mp-1738,1.03,SmAs
mp-978809,0.0,SmAs2Au
mp-30417,0.0,SmAu3
,3.54,SmB(SbO4)2
mp-6996,3.5,SmB6
,0.8,SmB66
mp-3428,0.0,SmBPd3
mp-1200917,3.39,SmBiW2O9
,0.0,SmC10
,0.0,SmCdHg2
mp-336,0.0,SmCo2
mp-5410,0.0,SmCo3B2
mp-1079121,0.0,SmCoC2
mp-13009,0.0,SmCrGe3
,0.0,SmCuO3
,2.9,SmCuSO
mp-11793,2.1,SmCuSe2
mp-9194,2.6,SmCuSeO
mp-8121,0.0,SmCuSi
,0.0,SmErMg2
,0.0,SmHg3
mp-567912,0.0,SmHgPd
,0.0,SmHoHg2
,0.0,SmHoZn2
mp-20666,0.0,SmIn2Rh
mp-621351,0.0,SmInAu
,0.0,SmLuTl2
mp-30779,0.0,SmMg3
,0.0,SmMgHg2
mp-9220,0.0,SmNi2B2C
mp-16734,0.0,SmNiAs
mp-999144,0.0,SmNiC2
mp-710,1.09,SmP
mp-1019110,0.0,SmPbAu
mp-1269,2.3,SmS
mp-2281,0.59,SmSb
mp-29647,0.0,SmSb2
mp-1447,0.46,SmSe
mp-15442,0.0,SmSi3Pt5
mp-571581,0.0,SmSnPd
,0.0,SmSnRh2
,0.52,SmSnTe2
,0.0,SmTh3
,0.0,SmTmZn2
,0.0,Sn(PO3)3
,0.24,Sn0.001Pb0.999Se1
,0.23,Sn0.01Te1Pb0.99
,0.21,Sn0.03Pb0.97Se1
,0.21,Sn0.03Te1Pb0.97
,0.12,Sn0.05Pb0.95Se1
,0.14,Sn0.06Pb0.94Se1
,0.28,Sn0.06Te1Pb0.94
,0.08,Sn0.07Pb0.93Se1
,0.06,Sn0.08Pb0.92Se1
,0.22,Sn0.08Te0.08Pb0.92Se0.92
,0.13,Sn0.08Te1Pb0.92
,0.02,Sn0.13Pb0.87Se1
,0.13,Sn0.15Pb0.85Se1
,0.18,Sn0.15Te0.15Pb0.85Se0.85
,0.04,Sn0.17Pb0.83Se1
,0.15,Sn0.17Te1Pb0.83
,0.16,Sn0.1Te1Pb0.9
,0.04,Sn0.23Te1Pb0.77
,0.04,Sn0.25Pb0.75Se1
,0.04,Sn0.25Te1Pb0.75
,0.12,Sn0.28Te0.28Pb0.72Se0.72
,0.06,Sn0.2Pb0.8Se1
,0.14,Sn0.2Te0.2Pb0.8Se0.8
,0.08,Sn0.2Te1Pb0.8
,0.09,Sn0.35Te0.35Pb0.65Se0.65
,0.26,Sn0.99Te1Pb0.01
,1.08,Sn1Se0.01S0.99
,1.03,Sn1Se0.2S0.8
,0.98,Sn1Se0.6S0.4
,0.94,Sn1Se0.75S0.25
,0.89,Sn1Se0.99S0.01
,1.32,Sn2BiSI5
,0.85,Sn2S
mp-561134,1.5,Sn2SbS2I3
mp-557633,2.6,Sn2WO5
,0.47,Sn3As2
mp-1194504,0.43,Sn3Ir2Se3
,0.0,Sn3P3O13
mp-1371,0.0,Sn3Pd
mp-556980,2.49,Sn3WO6
mp-28998,0.0,Sn5(BIr3)2
mp-30060,0.0,Sn5(BRh3)2
,0.0,SnAs3
,0.0,SnB
mp-569152,3.9,SnCl2
mp-5045,2.23,SnGeS3
mp-13554,1.6,SnHgO3
mp-27194,2.4,SnI2
mp-23182,2.38,SnI4
mp-2097,3.0,SnO
mp-856,3.6,SnO2
,0.0,SnPt3C
mp-317,0.0,SnRh
mp-1170,2.43,SnS2
,0.0,SnSb3(PO4)4
mp-665,1.62,SnSe2
mp-1883,0.3,SnTe
,0.0,Sr(CeS2)2
,0.0,Sr(CeSe2)2
mp-5671,0.0,Sr(CoP)2
mp-12780,0.0,Sr(GaAu)2
mp-21756,0.0,Sr(In4Rh)2
,2.85,Sr(LaS2)2
,2.45,Sr(NdS2)2
,2.7,Sr(PrS2)2
mp-1079784,0.0,Sr(RuO3)2
mp-22775,0.0,Sr(Sb3Ru)4
mp-1194208,0.0,Sr(YbS2)2
mp-17715,3.7,Sr0.5Ta1O3
mp-556496,0.0,Sr10Al4Si6O
mp-556498,8.0,Sr2Be2B2O7
mp-645208,0.0,Sr2Co2O5
mp-561870,0.0,Sr2CoReO6
mp-23102,0.0,Sr2Cu(ClO)2
,0.0,Sr2GaCo2O7
mp-29089,0.0,Sr2GeN2
mp-6676,0.0,Sr2HoRuO6
,1.0,Sr2La2.58Bi5.42S14
,2.52,Sr2La2Pt1O7.13
,0.0,Sr2Li2Nb3O10
mp-16307,0.0,Sr2MgIrO6
mp-1078868,0.0,Sr2MgReO6
,3.05,Sr2Pr2Pt1O7.07
mp-1106218,3.57,Sr2ScSbO6
,3.38,Sr2SmTaO6
mp-5532,3.41,Sr2TiO4
,2.96,Sr2V2(SeO5)3
mp-1197632,2.47,Sr2V3Se5O18
,0.0,Sr2YBi2O7
mp-7889,0.0,Sr2YReO6
mp-559614,0.0,Sr2ZnReO6
mp-7376,0.0,Sr3(AlSn)2
mp-22418,0.0,Sr3(SnIr)4
,4.0,Sr3Bi(PO4)3
,0.0,Sr3Co2S2O5
,3.99,Sr3Eu(PO4)3
,0.75,Sr3Ge(SbSe4)2
,0.0,Sr3Li4La5O12
,0.0,Sr3Sb2
mp-17557,0.0,Sr3ScNiO6
,4.4,Sr3Se3ClO8
mp-3349,3.26,Sr3Ti2O7
,0.05,Sr4Ga8Ge15
,4.0,Sr4Te3(ClO2)4
mp-1204879,2.66,Sr4V2(Se2O7)3
mp-29620,0.0,Sr5Bi3
mp-867155,0.0,Sr5Cd2Sb5F
mp-17720,0.0,Sr5Sn3
mp-40674,4.5,Sr5V3O12F
,0.0,Sr6Nb7O21
,0.0,Sr7Bi23O40
mp-567532,0.0,Sr8(MnN3)3
,0.74,Sr8.007Ge2.043Bi7.949Se24
mp-11224,0.0,Sr8Al7
mp-565434,0.0,Sr8Co8O23
mp-573523,0.0,Sr8Fe3N8
mp-30355,0.0,SrAg
mp-27233,0.0,SrAl
,0.0,SrB2
mp-242,3.68,SrB6
mp-547244,3.52,SrBiClO2
mp-30496,0.0,SrCd
,0.0,SrCdSi
mp-510607,2.45,SrCrO4
mp-30451,0.0,SrCuBi
mp-7390,0.9,SrGe2
mp-20074,0.0,SrIn2
,0.25,SrIn2(GeIr)4
mp-20497,0.0,SrIn2Ir
mp-542537,0.0,SrIn2Rh
mp-21901,0.0,SrIn4Ir
mp-21124,0.0,SrIn4Pt
,0.0,SrLa3MnO8
,0.0,SrLaMn2O6
,0.0,SrLi2Sn
,6.67,SrLi4(BO3)2
mp-571443,0.0,SrMgIn3
,2.0,SrMgSnSe4
mp-20189,0.0,SrMnGe
mp-10564,0.0,SrN2
mp-18252,0.0,SrNi2(PO4)2
mp-17396,0.0,SrNi5As3
mp-2472,5.7,SrO
mp-21162,0.0,SrPb3
,3.2,SrPb3Br8
mp-20489,1.78,SrPbO3
mp-9926,0.0,SrRhF6
mp-1087,4.76,SrS
,0.0,SrSbAu
mp-2758,4.42,SrSe
mp-4092,4.75,SrSeO4
mp-8843,0.0,SrSiPd
mp-2879,4.1,SrSnO3
mp-8539,0.0,SrSnP
mp-552454,1.99,SrTaNO2
mp-1958,3.73,SrTe
mp-1194714,3.02,SrTh(PS4)2
mp-30877,0.0,SrTl2
,0.0,SrTlHg2
,0.0,SrUS2
mp-510250,0.0,SrV13O18
,3.1,SrZnSO
mp-12275,0.0,SrZnSb2
,0.0,SrZr2Nb
,2.59,Ta11(CuO15)2
,2.58,Ta11(CuO6)5
,0.0,Ta22(CuS12)3
mp-31909,1.89,Ta2Mn3O8
,0.0,Ta2MoOs
mp-1079438,0.0,Ta2N
,0.0,Ta2Nb3O12
mp-10390,4.2,Ta2O5
,0.0,Ta2OsW
mp-14474,0.0,Ta2PtSe7
,0.0,Ta2TiN3
mp-18344,1.26,Ta2Tl4S11
,0.0,Ta2TlO6
mp-10142,0.0,Ta3B4
mp-504502,0.0,Ta3P
,0.0,Ta4AlC3
mp-28964,0.0,Ta4FeTe4
mp-8046,0.0,Ta4N5
mp-1642,0.0,Ta5N6
mp-30439,0.0,Ta6Be15Cu8
mp-582719,0.0,Ta6Ni16Ge7
mp-28752,2.47,Ta7Cu3O19
mp-869,0.0,TaAl3
,0.0,TaAlPt
mp-1936,0.0,TaAs
mp-2676,0.0,TaBe2
,0.0,TaCoSn2
mp-10748,3.0,TaCu3S4
,0.0,TaF3
,0.0,TaGaPt
,0.0,TaInNi
mp-1279,2.3,TaN
mp-22709,0.0,TaNiB2
mp-30836,0.0,TaPd3
mp-567638,0.0,TaPt3
mp-1020,0.0,TaRh3
,0.0,TaTiFe2
mp-10795,0.78,TaTlS3
,0.0,TaW3
mp-3546,0.0,Tb(Al2Fe)4
mp-972049,0.0,Tb(AlC)3
mp-3893,0.0,Tb(CoB)2
mp-3709,0.0,Tb(CoGe)2
,0.16,Tb(CuSe)3
,0.46,Tb(CuTe)3
mp-21041,0.0,Tb(FeP3)4
mp-5351,0.0,Tb(GePd)2
mp-2881,0.0,Tb(GeRh)2
,1.2,Tb(InS2)3
mp-22012,0.0,Tb(MnGe)6
mp-505597,0.0,Tb(Ni2P)2
,2.61,Tb0.52Pr2.48Ga1.67S7
mp-570655,0.0,Tb10B7C10
,0.0,Tb11S16
mp-13432,0.0,Tb2AlCo2
mp-7024,0.0,Tb2C3
mp-646337,2.0,Tb2EuSe4
,2.1,Tb2GeS5
mp-570630,0.0,Tb2In16Pt7
mp-1056,3.0,Tb2O3
mp-641945,0.0,Tb2Sb5
,0.0,Tb2SbO2
mp-21712,0.0,Tb2Ti3Ge4
mp-28827,0.0,Tb3(MnC3)2
mp-972235,0.0,Tb3FeB7
mp-1187292,0.0,Tb3Ge5
mp-541883,0.0,Tb3Ni13B2
mp-31102,0.0,Tb3ReO7
,0.0,Tb3Si
mp-1200490,4.59,Tb4Al2O9
mp-1202576,2.44,Tb4GaSbS9
,0.0,Tb5Ti5O17
mp-1188772,0.0,Tb5Tl3
,0.0,Tb6PbSe10
,3.53,TbB(SbO4)2
mp-3869,0.0,TbBRh3
mp-12615,0.0,TbBe13
mp-27923,0.0,TbCl
mp-2265,0.0,TbCo2
mp-11363,0.0,TbCu5
mp-11417,0.0,TbGa
mp-644529,0.0,TbGa2Co3
mp-11418,0.0,TbGa3
mp-24724,0.0,TbH2
mp-1062648,0.0,TbHg2
mp-672325,0.0,TbIn2Ni
mp-22382,0.0,TbInAg2
mp-22032,0.0,TbInIr
,0.0,TbMn5Ge3
mp-30808,0.0,TbNi5
mp-4288,0.0,TbNiGe2
,0.0,TbNiO3
mp-645,0.0,TbP
mp-1079305,0.0,TbPt
mp-1310,0.0,TbRh2
mp-1095657,0.0,TbSb2
,0.0,TbSe2
mp-31413,0.0,TbSnAu
mp-1176,0.0,TbTe
mp-30878,0.0,TbTl
mp-1103802,4.24,TbWClO4
,0.0,TbYHg2
,0.0,TbYbHg2
,0.0,TbYbRh2
mp-2338,0.0,TbZn2
mp-4075,0.0,TbZrSb
,0.0,Tc3Pd
,0.0,TcB
mp-9481,1.0,TcS2
,0.88,TcSe2
,0.26,Te0.01Pb1Se0.99
,0.26,Te0.05Pb1Se0.95
,1.2,Te0.4Se0.6
,0.29,Te0.5Pb1Se0.5
,1.0,Te0.5Se0.5
,0.7,Te0.6Se0.4
,0.4,Te0.8Se0.2
,0.3,Te0.99Pb1Se0.01
mp-20123,0.0,Te2Au
,0.0,Te2Mo(WS2)3
,0.0,Te2Mo2WSe4
,0.0,Te2Mo3Se4
,0.0,Te2MoWS2
mp-2142,0.3,Te2Os
mp-782,1.8,Te2Pd
mp-613,0.0,Te2Pd3
mp-605028,0.0,Te2Pd3Pb2
mp-267,0.25,Te2Ru
,0.0,Te2W2SeS
,0.0,Te3MoWS
,0.0,Te4Mo(WS)2
,0.0,Te4MoW3S4
mp-10051,0.74,TeAs
mp-569766,1.1,TeI
mp-570884,1.1,TeI4
,0.0,TeMoSe
mp-2125,3.0,TeO2
mp-1196950,3.79,TePb3Cl4O3
mp-564,0.0,TePd
,1.58,TeSe
mp-669325,0.0,TeWCl9
mp-4703,0.0,Th(Al2Fe)4
mp-568030,0.0,Th(Al5Fe)2
mp-20238,0.0,Th(FeGe)2
mp-7600,0.0,Th(FeSi)2
mp-4147,0.0,Th(GePd)2
mp-21281,0.0,Th(MnGe)2
mp-5165,0.0,Th(SiRu)2
mp-12584,0.0,Th2CrN3
mp-30639,0.0,Th2Fe7
,1.98,Th2GeSe2
mp-21428,0.0,Th2In
mp-2392,0.37,Th2Se5
mp-3182,0.0,Th3B2C3
mp-570442,0.0,Th6Mg23
mp-178,0.0,ThAl
mp-1306,0.0,ThAl3
mp-1019357,0.0,ThAsSe
mp-571335,0.0,ThBi2
mp-22528,0.0,ThCrB4
mp-569748,0.0,ThFe2SiC
mp-2215,0.0,ThHg2
mp-312,0.0,ThIr5
mp-648519,0.0,ThMn4(CuO4)3
mp-1019360,0.0,ThPSe
mp-570184,0.0,ThPd3
mp-568337,0.0,ThRh2
mp-22394,0.0,ThRu3C
mp-503,0.0,ThS
mp-8136,2.22,ThSO
mp-7950,1.65,ThSeO
mp-21238,0.0,ThSi
mp-1025056,0.0,ThSi2Ru3
mp-3718,1.45,ThTeO
,0.0,ThU8O18
mp-23494,3.09,Ti(Bi3O5)4
,0.0,Ti10O11
,0.0,Ti11O18
,0.0,Ti13S24
,0.3,Ti1C0.9
,0.0,Ti20(Sb3Se)3
,0.0,Ti2AlV
,0.0,Ti2B
mp-571126,0.0,Ti2BRh6
mp-1201649,0.0,Ti2Be17
mp-10721,0.0,Ti2C
mp-30501,0.0,Ti2Cd
,0.0,Ti2CoGe
mp-1025269,0.0,Ti2CoS4
mp-3951,0.0,Ti2CuS4
,0.0,Ti2MnFe
mp-644259,0.0,Ti2NiH
mp-1025281,0.0,Ti2NiSe4
,0.0,Ti2OsRu
,0.0,Ti2RePd
,0.0,Ti2ReRh
,0.0,Ti2ReRu
,0.0,Ti2Sb(PO4)3
,0.0,Ti2TcNi
,0.0,Ti2TcPd
,0.0,Ti2ZnS4
,0.0,Ti3Be
mp-21457,0.0,Ti3Cu3O
,0.0,Ti3Fe3O
,0.0,Ti3PO7
mp-30851,0.0,Ti3Pt5
,0.0,Ti3SnC2
mp-571457,0.0,Ti4NiBi2
mp-10734,0.0,Ti4O5
,0.0,Ti4ZnO8
mp-684065,0.0,Ti5(B6O13)2
,0.0,Ti5Zn4(TeO6)3
,0.0,Ti5ZnO7
mp-1191976,3.4,Ti6H2O13
,0.0,Ti9O10
,0.0,Ti9O8
mp-1953,0.0,TiAl
mp-16482,0.0,TiAlAu2
mp-505540,0.0,TiAsRh
,0.0,TiAuCl
,3.1,TiBi25O39
mp-27785,0.0,TiBr2
mp-631,0.0,TiC
mp-22769,0.0,TiCoGe
mp-5967,0.95,TiCoSb
,0.0,TiCoSn
,0.0,TiCr3(PO4)6
mp-2454,0.0,TiFe2
,0.0,TiFe2As
,0.0,TiFe2Sb
,0.4,TiFe2Si
mp-1079106,0.0,TiFeH2
,0.0,TiGaIr2
mp-7607,0.0,TiHgO3
,0.0,TiI
,0.0,TiMn2Al
,0.0,TiMn2Ge
mp-20952,0.42,TiNiSb
mp-554278,3.3,TiO2
,0.0,TiOs3
mp-5839,0.0,TiPO4
mp-980094,0.0,TiPd
,0.0,TiReN3
mp-2156,1.95,TiS2
mp-9920,0.9,TiS3
mp-568789,0.0,TiSe
mp-2194,1.55,TiSe2
,0.0,TiTc2Sb
mp-1907,1.0,TiTe2
mp-558747,1.3,TiTlPS5
,1.0,TiTlS2
,0.56,TiTlSe2
,0.0,TiV4CuO12
mp-21289,0.0,TiZn3
mp-557929,0.0,Tl(Cu3S2)2
mp-3411,0.0,Tl(MoSe)3
,0.0,Tl(WO3)3
,0.3,Tl0.001Te1Pb0.999
,0.48,Tl0.005Te1Pb0.995
,0.59,Tl0.01Te1Pb0.99
,0.57,Tl0.04Te1Pb0.96
,0.54,Tl0.07Te1Pb0.93
,0.0,Tl16O15F17
,0.6,Tl2.35Sb8.65Se14
mp-559093,1.8,Tl2BiP2S7
mp-1025299,0.0,Tl2CdTe4
mp-18240,1.4,Tl2Cu2SnS4
mp-29034,0.36,Tl2GeTe3
mp-1188364,2.05,Tl2Hg3S4
mp-1105692,1.57,Tl2Hg3Se4
mp-1190100,0.9,Tl2Hg3Te4
,2.05,Tl2InGaSe4
,0.88,Tl2InGaTe4
mp-704535,0.0,Tl2Mo7O22
mp-1658,2.25,Tl2O3
mp-9510,2.2,Tl2PAuS4
mp-556516,1.0,Tl2S
,0.37,Tl2Se
,0.67,Tl2Te3As2Se
mp-31076,2.06,Tl2TeBr6
mp-31077,1.47,Tl2TeI6
mp-17172,1.6,Tl2TeS3
mp-7684,1.3,Tl3AsSe3
,0.0,Tl3Cr
,0.0,Tl3Ir
,0.0,Tl3Pb
,0.0,Tl3Si
mp-570339,2.8,Tl4CdI6
mp-1191858,2.2,Tl4CuTeO6
,2.63,Tl4In3GaS8
mp-174,0.0,Tl5Te3
,2.3,Tl6Cu(TeO5)2
,0.0,Tl8Os8O27
,0.0,Tl9SbSe6
,0.72,TlAgSe2
mp-10006,0.1,TlAgTe2
mp-4988,2.15,TlAsS2
mp-30236,1.35,TlAsSe2
mp-27438,0.12,TlBiTe2
,0.5,TlBiTe3
mp-7708,1.5,TlCdS2
,0.0,TlCoBi
,0.0,TlCoMo2
,0.75,TlCr5(Se3S)2
,0.85,TlCr5(SeS)4
,0.94,TlCr5(SeS3)2
mp-541823,1.01,TlCr5S8
,0.89,TlCr5Se3S5
,0.8,TlCr5Se5S3
,0.71,TlCr5Se7S
mp-3407,0.67,TlCr5Se8
,0.97,TlCr5SeS7
mp-1105457,2.98,TlCuCl3
mp-14090,1.07,TlCuSe2
mp-23415,0.0,TlFeI3
mp-4016,3.4,TlGaS2
mp-17254,1.65,TlGaSe2
mp-3785,1.8,TlGaTe2
mp-1204377,3.03,TlHg6S4Br5
mp-1202157,2.8,TlHg6Se4Br5
,2.3,TlInGeS4
mp-1190524,1.74,TlInHgS3
mp-22791,0.62,TlInTe2
,1.4,TlN
mp-870,3.58,TlN3
,0.0,TlNi
,1.6,TlPS2
,0.5,TlPSe2
mp-561066,1.36,TlS
,1.8,TlS2
,0.82,TlSbSe2
,0.38,TlSbTe3
mp-2556,0.0,TlSn
,1.2,TlSnAuSe3
mp-2081,0.0,TlTe
,0.3,TlTeP
,0.0,TlZn2Tc
mp-3262,0.0,Tm(CoSi)2
mp-567808,0.0,Tm(CuGe)2
,0.0,Tm(CuS)2
mp-640889,0.14,Tm(CuTe)3
mp-2938,0.0,Tm(FeSi)2
mp-570907,0.0,Tm(GeRu)2
mp-5641,0.0,Tm(MnGe)6
mp-4195,0.0,Tm(NiGe)2
mp-570217,0.0,Tm(SiOs)2
,0.0,Tm2AlOs
,0.0,Tm2CdHg
,0.0,Tm2CuTc
mp-647243,0.0,Tm2Ga10Os3
mp-21486,0.0,Tm2In
,0.0,Tm2IrPd
,0.0,Tm2MgRu
,0.0,Tm2MgTl
mp-1767,4.53,Tm2O3
mp-555716,0.0,Tm2Ru2O7
,0.0,Tm2ZnAg
,0.0,Tm2ZnGa
,0.0,Tm2ZnHg
,0.0,Tm2ZnOs
mp-9694,0.0,Tm3(GePd)4
,0.0,Tm3GaC
mp-13511,0.0,Tm4In(NiGe2)2
,1.22,Tm4Sb2Se11.68
mp-21810,0.0,Tm5(Ge5Rh2)2
,0.0,Tm5Ti5O17
mp-16518,0.0,TmAl4Ni
mp-865402,0.0,TmAlCu
mp-1101,1.18,TmAs
mp-1017507,0.0,TmAu
mp-560,0.0,TmAu2
mp-15604,0.0,TmB2C
mp-10134,0.0,TmBPd3
mp-5438,0.0,TmBRh3
,0.0,TmCdAg2
mp-1025408,0.0,TmCoSi2
mp-1025116,0.0,TmCu4Ag
mp-8123,0.0,TmCuSi
mp-998911,0.0,TmGe
mp-24727,0.0,TmH2
mp-21177,0.0,TmIn3
,0.0,TmLuPd2
,0.0,TmMg2Sc
,0.0,TmMgAg2
,0.0,TmMgCd2
mp-11615,0.0,TmMnGe
mp-554211,0.0,TmMnO3
mp-348,0.0,TmPd
mp-2520,0.0,TmSb
,0.0,TmScHg2
mp-11974,0.0,TmSnRh
,0.0,TmSnRu2
,0.0,TmThRu2
mp-515,0.0,TmTl
,0.0,TmU2S3O2
mp-4606,0.0,U(Al2Fe)4
mp-27350,0.0,U(BH4)4
mp-1079975,0.0,U(CoGe)2
mp-2971,0.0,U(CrC)4
mp-21478,0.0,U(CuP)2
mp-5683,0.0,U(MnSi)2
mp-20596,0.0,U(SiNi)2
,0.0,U11O5
mp-541853,0.0,U2(Co7B2)3
mp-8894,0.0,U2Al3C4
mp-21269,0.0,U2AlCo2
mp-30176,0.0,U2AlCo3
mp-27661,0.0,U2Cl5O2
mp-21819,0.0,U2Cr30P19
mp-572929,0.0,U2Cu2As3O
mp-570800,0.0,U2MnN3
mp-1078133,0.0,U2Re2C3
mp-639876,0.0,U2SnRh2
mp-5505,0.0,U2TeN2
mp-1709,0.0,U2Ti
mp-680401,0.0,U2Zn17
mp-23196,0.0,U3Bi4
mp-541587,0.0,U3Cu2Se7
,0.0,U3Nb
mp-567905,0.0,U3Ni3Sn4
mp-20328,0.0,U3Se4
,0.0,U4N7
mp-504442,0.0,U4Re7Si6
,0.0,U4S3
,0.0,U5Ge3
mp-582635,0.0,U6Co
mp-1723,0.0,UAl3
mp-574122,0.0,UAl4
mp-16519,0.0,UAlNi4
mp-12072,0.0,UAu2
mp-13018,0.0,UCo4Sn
mp-20811,0.0,UCoSi
mp-30534,0.0,UCuP2
mp-580439,0.0,UFe5Si3
mp-20121,0.0,UFeSi