likely_mpid,expt_gap,formula
,0.0,Ag(AuS)2
mp-29717,0.0,Ag(W3Br7)2
,1.83,Ag0.5Ge1Pb1.75S4
,1.51,Ag0.5Ge1Pb1.75Se4
,0.0,Ag2BBr
mp-23558,0.0,Ag2BiO3
mp-9900,1.98,Ag2GeS3
,0.9,Ag2GeSe3
mp-23485,2.47,Ag2HgI4
mp-1203404,3.06,Ag2Mo(I2O7)2
mp-557644,0.0,Ag2P2PbO7
mp-5495,0.18,Ag2PdO2
mp-5408,0.0,Ag3AsO4
,0.0,Ag3Pd
mp-510453,0.0,Ag3RuO4
mp-554648,1.4,Ag5IO6
,0.0,Ag7(SI)2
mp-15077,1.0,Ag7AsS6
,1.0,Ag7AsSe6
,0.0,Ag7NO11
mp-9770,1.18,Ag8GeS6
mp-17984,0.71,Ag8SnSe6
,0.0,Ag9(PbO3)4
mp-561034,0.0,Ag9Ge2IO8
mp-4483,1.4,AgAsSe2
,0.0,AgAu3
mp-556434,1.7,AgBi(PS3)2
mp-569126,1.4,AgBi(PSe3)2
,1.2,AgBiPbS3
,0.13,AgBiPbSe3
mp-29678,0.9,AgBiS2
mp-27916,0.34,AgBiSe2
mp-23231,2.52,AgBr
mp-6781,0.0,AgCNO
mp-22922,5.13,AgCl
mp-7592,2.8,AgF
,0.0,AgGeO3
mp-499,1.57,AgO
mp-1195243,1.47,AgP15
mp-1193499,1.5,AgPd(IO3)3
,0.0,AgPdO2
mp-30353,0.0,AgPt3
mp-1006372,0.18,AgSO4
,0.8,AgTe2As
mp-505473,0.0,Al(Ni10B7)2
,0.0,Al(NiS2)2
,1.6,Al0.01Cd0.99Sb0.01Te0.99
,2.27,Al0.01Ga0.99P1
,1.3,Al0.01In0.99P1
,1.37,Al0.05Cd0.95Sb0.05Te0.95
,1.6,Al0.15Ga0.85As1
,1.36,Al0.1Cd0.9Sb0.1Te0.9
,1.5,Al0.1In0.9P1
,2.3,Al0.2Ga0.8P1
,1.7,Al0.2In0.8P1
,2.0,Al0.35Ga0.65As1
,1.81,Al0.3Ga0.7As1
,1.9,Al0.3In0.7P1
,1.93,Al0.45Cd0.55Sb0.45Te0.55
,1.8,Al0.4Cd0.6Sb0.4Te0.6
,2.35,Al0.4Ga0.6P1
,2.12,Al0.4In0.6P1
,2.12,Al0.5Ga0.5As1
,2.3,Al0.6Ga0.4As1
,2.4,Al0.6Ga0.4P1
,2.3,Al0.6In0.4P1
,2.42,Al0.75Ga0.25As1
,2.3,Al0.7In0.3P1
,2.43,Al0.8Ga0.2P1
,2.21,Al0.99Cd0.01Sb0.99Te0.01
,2.49,Al0.99Ga0.01P1
,2.4,Al0.99In0.01P1
mp-16722,0.0,Al10V
mp-17880,0.0,Al13Ru4
,0.0,Al2(CuSe2)3
mp-1982,0.0,Al21Pt8
,0.0,Al2CoIr
,0.0,Al2Cr2O7
,0.0,Al2CrS4
mp-998,0.0,Al2Cu
,0.0,Al2FeNi
mp-10910,0.0,Al2Ru
mp-684638,4.1,Al2S3
mp-11674,3.1,Al2Se3
,0.0,Al3Tc
,0.0,Al4Cu2O7
mp-593,0.0,Al4Cu9
mp-1791,0.0,Al5Rh2
mp-570001,0.0,Al6Fe
mp-16529,0.0,Al6Ru
mp-16718,0.0,Al6Tc
mp-569102,0.0,Al7(CN)3
mp-16488,0.0,Al9Co2
mp-12003,0.0,Al9Ir2
mp-1645,0.0,Al9Rh2
mp-9631,3.6,AlAgO2
mp-5782,3.13,AlAgS2
mp-14091,2.55,AlAgSe2
mp-14092,1.8,AlAgTe2
mp-2172,0.0,AlAs
mp-944,0.0,AlB2
,0.4,AlBi
,0.0,AlCoO3
mp-12802,0.0,AlCu3
,0.0,AlCu7O12
mp-4979,3.5,AlCuS2
mp-8017,2.06,AlCuTe2
,0.0,AlFe2Si
,0.0,AlFe4(CuO4)3
mp-1885,0.0,AlIr
,0.0,AlNi2
mp-27393,0.0,AlPd5I2
,0.0,AlSn
mp-1194859,2.9,AlV(TeO4)2
mp-4955,0.0,AlVCo2
mp-15649,1.0,As2Ir
mp-1581,4.0,As2O3
mp-2455,0.9,As2Os
mp-15954,1.15,As2Rh
mp-766,0.8,As2Ru
,2.48,As2S5
,0.0,AsAu3
mp-23317,2.6,AsBr3
,1.3,AsOsS
,0.23,AsP
,0.45,AsPPd
,0.4,AsPPt
,0.8,AsPRu
mp-20257,0.0,AsPd3Pb2
,1.2,AsRuS
mp-542810,2.4,AsS
,2.35,AsS3
,2.05,AsSI
,0.0,AsSeBr
mp-505373,1.76,AsSeI
,0.0,Au3S
,0.0,AuBrO2
mp-1196917,2.9,B2Mo(PbO2)6
mp-306,4.89,B2O3
mp-558521,4.64,B2Se2O7
,4.42,B3H2Pb2O7.5
,3.25,B3Pb10Br3O13
mp-1200969,3.64,B3Pb3NO10
mp-696746,1.64,B4C
,3.24,B4H2Pb6O13
,0.0,B4W
,0.0,B5Mo2
mp-624,1.51,B6As
mp-28395,3.3,B6P
mp-10044,1.45,BAs
mp-1105235,3.76,BH(PbO2)2
mp-1890,0.0,BMo
mp-1479,4.2,BP
,3.99,BPb2ClO3
,2.84,BPb6BrO7
mp-1201413,2.62,BPb7Br3O7
mp-21502,0.0,BRh2
,2.6,BSb
,1.8,BSbPbS4
,0.0,BSe2Cl
,0.0,BTe2As
mp-571350,0.0,Ba(AsPd)2
mp-568113,0.0,Ba(AsRh)2
mp-7349,0.0,Ba(BRh)2
mp-27660,0.0,Ba(FeS2)2
mp-849286,4.13,Ba(GaS2)2
mp-7841,3.16,Ba(GaSe2)2
mp-21943,3.06,Ba(InS2)2
mp-21766,2.63,Ba(InSe2)2
mp-571420,0.0,Ba(NiP2)2
,0.0,Ba(PdO2)2
,0.0,Ba(SnO2)4
mp-7427,0.23,Ba(ZnAs)2
,0.13,Ba1.88Ta15O32
,2.56,Ba12In4S19
mp-738639,0.0,Ba14Ir8(PdO11)3
,0.0,Ba14Na8CaN6
,2.84,Ba23Ga8(SbS19)2
,5.12,Ba2B4H2O9
mp-1199077,6.53,Ba2B6H4O13
,5.17,Ba2B6O11
mp-23127,0.0,Ba2BiSbO6
mp-6739,0.0,Ba2CaOsO6
mp-12417,0.0,Ba2CaReO6
mp-1190588,4.59,Ba2Cd(BO2)6
,0.0,Ba2Ce2O5
,1.35,Ba2CeInTe5
mp-22112,0.0,Ba2CoWO6
mp-29457,0.0,Ba2Cu5F14
mp-505618,0.0,Ba2CuWO6
mp-622105,0.0,Ba2DyCu3O7
mp-1105698,2.35,Ba2DyGaSe5
mp-1105922,1.13,Ba2DyGaTe5
mp-1106127,2.27,Ba2DyInSe5
mp-1189860,1.35,Ba2DyInTe5
mp-1105790,1.95,Ba2ErGaSe5
mp-1105724,1.15,Ba2ErGaTe5
mp-1188122,2.29,Ba2ErInSe5
mp-1106146,1.35,Ba2ErInTe5
mp-1289745,0.0,Ba2FeMoO6
mp-31756,0.0,Ba2FeReO6
,3.0,Ba2Ga8GeS16
,3.4,Ba2Ga8SiS16
mp-1195309,1.39,Ba2GaAsSe5
mp-1201906,2.38,Ba2GaBiS5
mp-1203584,2.21,Ba2GaBiSe5
mp-1202829,1.43,Ba2GaBiTe5
mp-1199702,2.55,Ba2GaS4
mp-1203387,2.51,Ba2GaSbSe5
mp-1200935,1.66,Ba2GaSbTe5
mp-1195574,1.63,Ba2GaSe4
mp-1190156,1.87,Ba2GdGaSe5
mp-1105573,1.12,Ba2GdGaTe5
,2.24,Ba2GdInSe5
,1.36,Ba2GdInTe5
mp-1194545,2.4,Ba2HgS5
mp-22841,2.47,Ba2In2S5
mp-573635,2.12,Ba2In2Se5
mp-1197611,2.32,Ba2InAgS4
mp-864638,1.55,Ba2InBiS5
mp-1189339,1.92,Ba2InSbSe5
mp-15889,0.0,Ba2LaIrO6
mp-8924,0.0,Ba2LiFe2N3
mp-1191092,0.45,Ba2NaCu3S5
,2.12,Ba2NdGaS5
mp-1205363,2.18,Ba2NdGaSe5
mp-1190093,2.2,Ba2NdInSe5
mp-1205400,1.37,Ba2NdInTe5
mp-20286,0.0,Ba2ReNiO6
,2.7,Ba2Sb7HO14
,0.0,Ba2ScIrO6
,4.19,Ba2ScTaO6
mp-21451,0.0,Ba2SmCu3O7
mp-1189376,2.27,Ba2SmGaSe5
mp-1189729,1.04,Ba2SmGaTe5
mp-1188304,2.22,Ba2SmInSe5
,1.36,Ba2SmInTe5
,3.02,Ba2SmTaO6
mp-1192595,1.9,Ba2SnSe4
mp-31307,1.8,Ba2SnSe5
mp-1079630,4.17,Ba2TaInO6
mp-12410,0.0,Ba2TbIrO6
mp-1078405,1.75,Ba2ThCu2Se5
mp-1205359,0.0,Ba2UCuO6
mp-1204192,3.16,Ba2V2Te2O11
mp-556688,3.48,Ba2V2ZnO8
,2.64,Ba2V4(TeO6)3
mp-1106265,2.31,Ba2YGaSe5
mp-1189739,1.08,Ba2YGaTe5
mp-1205397,2.31,Ba2YInSe5
mp-1106096,1.36,Ba2YInTe5
mp-6430,0.0,Ba2YReO6
mp-15039,0.0,Ba2Yb(CuO2)4
,3.54,Ba2Zn0.2B2S5.2
mp-1190528,2.75,Ba2ZnSe3
mp-1190380,2.1,Ba2ZnTe3
mp-10669,0.0,Ba3(AlGe)2
mp-30254,0.0,Ba3(LiSn2)4
,2.37,Ba3Ag2(SnS4)2
,3.01,Ba3B1.5Sb0.5S6
,2.62,Ba3BSbS6
,1.89,Ba3BSbSe6
,2.43,Ba3Bi0.5B1.5S6
mp-556407,2.3,Ba3Bi2TeO9
mp-17448,0.0,Ba3CaIr2O9
mp-6443,0.0,Ba3CaRu2O9
,2.75,Ba3Cd(SnS4)2
,0.0,Ba3Co10O17
mp-30903,0.0,Ba3CrS5
mp-560798,3.28,Ba3Dy2(PS4)4
mp-560534,3.3,Ba3Er2(PS4)4
mp-541721,0.0,Ba3ErRu2O9
,4.09,Ba3Eu(PO4)3
mp-1195713,1.65,Ba3FeS4Br
mp-684036,3.41,Ba3Gd2(PS4)4
mp-1200759,3.0,Ba3GeS5
mp-559171,3.3,Ba3Ho2(PS4)4
mp-1200796,3.87,Ba3In2(PO4)4
mp-1205371,3.42,Ba3InS4Cl
,1.8,Ba3La3(Cu3O7)2
mp-6325,4.28,Ba3MgTa2O9
,0.0,Ba3N2
mp-21876,0.0,Ba3NaIr2O9
mp-9746,0.0,Ba3NaIrO6
mp-31514,0.0,Ba3Nb2CoO9
mp-1195033,1.3,Ba3Nb2Se9
mp-1194911,6.89,Ba3P3ClO10
,0.0,Ba3PN
mp-1195624,2.4,Ba3Sb2S7
,0.97,Ba3Sn(SbSe4)2
,0.79,Ba3Sn0.87Bi2.13Se8
mp-1195068,1.6,Ba3Ta2Se9
,4.32,Ba3Ta2ZnO9
,2.8,Ba3Ta5NO14
mp-554264,3.37,Ba3Tb2(PS4)4
,0.0,Ba3Te
mp-1095255,1.96,Ba3ThSe7
mp-1200758,2.87,Ba3V2(SeO4)4
mp-1205382,0.0,Ba3YIr2O9
,0.0,Ba3Yb4O9
mp-561170,0.0,Ba3ZrRu2O9
,7.1,Ba4B11O20F
,2.18,Ba4Ga4GeSe12
mp-1195344,2.16,Ba4Ga4SnSe12
,2.52,Ba4Ga5AgS12
,2.82,Ba4Ga5CuS12
,1.45,Ba4Ga5CuSe12
,0.31,Ba4Ga5Si18
,2.91,Ba4Ge3S9Cl2
,1.89,Ba4Ge3Se9Cl2
,2.41,Ba4InAgSe6
,2.23,Ba4InCuSe6
mp-1197353,2.65,Ba4LiGa5Se12
mp-4564,0.0,Ba4Nb14O23
,2.09,Ba4Sb3S8Cl
mp-17815,0.0,Ba4Si20Au3
,1.76,Ba4Si3Se9Cl2
mp-636383,0.0,Ba4Sm2Cu2O9
mp-653337,0.0,Ba4Yb(CuO3)3
,2.2,Ba5(Ga2Se5)2
mp-1204617,2.51,Ba5(GaSe4)2
mp-570390,0.0,Ba5Al2Ge7
mp-29621,0.0,Ba5Bi3
,2.6,Ba5Cd(Ga2Se5)3
,1.39,Ba5Ga6GeP12
,1.21,Ba5Ga6SnP12
mp-21538,0.0,Ba5Ge3
mp-31407,0.0,Ba5In4Bi5
mp-1105201,2.13,Ba5In4Te4S7
mp-9909,0.0,Ba5Sb3
,3.85,Ba5V3O12F
,3.44,Ba6Al4B14O33
,1.99,Ba6Ga2SnSe11
,0.0,Ba6In2NF
mp-1196224,1.52,Ba6Sn6Se13
,2.29,Ba7(SnS3)5
,4.94,Ba7B3O9F5
,2.6,Ba7Ga5AgS15
mp-556877,0.0,Ba7Ru4Br2O15
mp-1019529,3.1,Ba8Al10B12O41
,1.98,Ba8Hg4Se7S5
mp-1195594,2.31,Ba8Sn4S15
,0.0,Ba8Ta7O24
mp-11840,0.0,BaAg
mp-1241,0.0,BaAg2
mp-1190401,2.2,BaAgSbS3
mp-551,0.0,BaAl2
mp-1191234,3.4,BaAl4Se7
,0.0,BaAlCu4O7
,2.32,BaAu(IO3)5
mp-30363,0.0,BaAu2
mp-954,2.64,BaB6
mp-1103527,6.89,BaBClF4
mp-866301,2.34,BaBSbS4
mp-552806,3.71,BaBiClO2
mp-1019542,5.6,BaCaB2O5
mp-583645,0.0,BaCaSn3
mp-12306,2.3,BaCdSnS4
mp-12364,0.48,BaCu2SnSe4
,2.0,BaCuSbS3
,1.6,BaCuSbSe3
mp-13287,2.3,BaCuTeF
mp-22550,0.0,BaDy2CuO5
mp-579071,0.0,BaEu2Mn2O7
,3.23,BaGa2GeS6
,3.75,BaGa2SiS6
,2.88,BaGa2SiSe6
mp-4309,3.54,BaGa4S7
mp-1191072,2.64,BaGa4Se7
mp-2139,1.0,BaGe2
mp-22346,0.0,BaGe3Pt
,1.54,BaGe4(IrS3)2
,1.33,BaGe4(IrSe3)2
,1.09,BaGe4(RhSe3)2
mp-28007,1.93,BaHgS2
,1.56,BaHgSe2
mp-1205018,3.97,BaIn2(P2O7)2
mp-22780,0.0,BaIn2Ir
mp-22423,0.0,BaLa2CoS5
,1.87,BaLa2In2S7
,1.66,BaLa2In2Se7
mp-559703,3.81,BaLa2Te5O14
mp-210,0.0,BaLi4
,0.0,BaMn4O7
,0.0,BaMn4ZnO8
mp-1205336,0.0,BaMnO3
,3.7,BaNa2GeS4
,2.25,BaNa2GeSe4
,3.27,BaNa2SnS4
,2.46,BaNa2SnSe4
mp-1019554,4.78,BaNaB5O9
mp-505517,0.0,BaNb4O6
mp-1342,4.8,BaO
mp-1106270,1.97,BaPd(IO3)4
,2.15,BaPdSe6
mp-22705,2.0,BaPrO3
mp-811,0.0,BaPt5
mp-28911,3.44,BaReH9
mp-1500,3.88,BaS
mp-2499,0.0,BaSi
mp-1477,1.3,BaSi2
mp-1202711,2.35,BaSn2S5
mp-7759,0.0,BaSn3
mp-3163,3.1,BaSnO3
,1.78,BaTaNO2
mp-558858,0.0,BaTbMn2O6
mp-1000,3.4,BaTe
mp-1203413,3.12,BaTeMo2O9
,0.0,BaTh3
,0.0,BaTi14O28
,0.0,BaTi4O7
,0.0,BaTi4O8
,0.0,BaTl(MoO3)2
,0.0,BaTl3
,1.0,BaUSe3
mp-1200210,2.13,BaV2SeO8
,0.0,BaYb2O4
mp-571479,0.0,BaYbSn3
,0.0,BaZn(MoO2)4
mp-303,0.0,BaZn5
,2.46,BaZnGeSe4
mp-548469,3.9,BaZnSO
,2.71,BaZnSiSe4
mp-571622,0.0,Be12Pt
mp-569364,0.0,Be22Re
,0.0,Be2HgTe
mp-11282,0.0,Be2W
mp-18337,3.8,Be3N2
,0.67,Be3Sb2
mp-4262,0.0,BeAlB
mp-2323,0.0,BeCu
,0.0,BeFe2Si
,0.0,BeGaO3
,0.0,BeGaRh2
mp-2542,10.39,BeO
mp-13452,0.0,BePd2
mp-13453,0.0,BePd3
mp-422,4.17,BeS
mp-1541,4.0,BeSe
,0.0,BeSiOs2
,0.0,BeSiRu2
,0.0,BeTcSe
mp-252,2.89,BeTe
,0.79,Bi0.002Te0.003Pb0.999Se0.999
,0.28,Bi0.04Te0.06Pb0.98Se0.98
,0.28,Bi0.2Sb1.8Te3
,0.25,Bi0.2Te0.3Pb0.9Se0.9
,0.21,Bi0.4Sb1.6Te3
,0.22,Bi0.4Te0.6Pb0.8Se0.8
,0.2,Bi0.6Sb1.4Te3
,0.17,Bi1.4Sb0.6Te3
,0.16,Bi1.6Sb0.4Te3
,0.15,Bi1.8Sb0.2Te3
,0.14,Bi1.98Sb0.02Te3
,3.25,Bi12PO20
,0.0,Bi12Rh12O41
,0.02,Bi1Sb0.15
,0.0,Bi2(BO3)3
mp-23388,2.9,Bi2(MoO4)3
,0.0,Bi2(PO4)3
,2.91,Bi24BO39
,3.43,Bi2AsClO4
mp-30200,3.42,Bi2CO5
mp-1204764,3.3,Bi2I4O13
mp-1200193,3.15,Bi2Mo2Se2O13
,0.0,Bi2O5
mp-23012,0.0,Bi2Pd3S2
mp-568531,0.0,Bi2Pt
,3.74,Bi2SI2O11
mp-541837,0.35,Bi2Se3
,3.7,Bi2SeI2O11
,0.27,Bi2Te0.03Se2.97
,0.78,Bi2Te0.1Se2.9
,0.24,Bi2Te0.3Se2.7
,0.2,Bi2Te0.45Se2.55
,0.7,Bi2Te0.4Se2.6
,0.28,Bi2Te0.6Se2.4
,0.28,Bi2Te0.9Se2.1
,0.28,Bi2Te1.2Se1.8
,0.29,Bi2Te1.5Se1.5
,0.29,Bi2Te2.1Se0.9
,0.25,Bi2Te2.4Se0.6
,0.2,Bi2Te2.7Se0.3
,0.15,Bi2Te2.97Se0.03
,3.6,Bi2Te2SO10
mp-29666,0.3,Bi2Te2Se
mp-34202,0.25,Bi2Te3
,2.6,Bi3BTeO9
,3.7,Bi3I4O13F3
,3.59,Bi3Se2NO11
mp-583234,0.0,Bi4I
mp-1190436,0.29,Bi4Pb7Se13
,2.06,Bi4Pd(SeO3)4
mp-554445,2.76,Bi5IO7
mp-1190898,4.05,Bi7O5F11
,0.4,Bi8Te7S5
,1.27,Bi9S6O7.5
,0.0,BiAs2Os
mp-556601,3.2,BiBPbO4
mp-568301,2.66,BiBr3
mp-23072,2.92,BiBrO
mp-22939,3.46,BiClO
,3.97,BiIO3F2
,0.0,BiO
,3.7,BiP3(PbO4)3
mp-558798,3.85,BiPO4
,1.6,BiPb2S2I3
mp-23084,2.45,BiPbClO2
mp-1008488,0.0,BiPd
mp-23324,1.88,BiSBr
mp-23318,1.89,BiSCl
mp-23514,1.56,BiSI
,0.19,BiSbTe3
mp-27902,0.4,BiSe
mp-23020,1.28,BiSeI
,3.83,BiSeO3F
mp-22965,0.46,BiTeI
mp-1195032,3.62,BiTeNO6
,3.7,CBr4
,2.26,CI4
mp-7878,0.0,Ca(AgGe)2
mp-17871,0.0,Ca(Al4Co)2
mp-30175,0.0,Ca(AlZn)2
mp-10289,0.0,Ca(BC)2
mp-14445,0.0,Ca(BIr)2
mp-558751,3.08,Ca(BiO2)2
mp-4259,0.0,Ca(CoGe)2
,0.0,Ca(CoS2)4
,2.55,Ca(GdS2)2
mp-16261,0.0,Ca(GeRh)2
,2.7,Ca(LaS2)2
mp-5498,0.0,Ca(MnAs)2
,2.7,Ca(NdS2)2
,0.0,Ca(Ni2O3)2
,2.9,Ca(PrS2)2
mp-567769,0.0,Ca(SiPd)2
,2.05,Ca(SmS2)2
,0.0,Ca(TiS2)4
mp-1019569,5.47,Ca10Ge16(B2O17)3
mp-27298,0.0,Ca11Bi10
mp-30474,0.0,Ca11Ga7
mp-28848,3.34,Ca2Bi2O5
mp-1095180,0.95,Ca2CdAs2
,0.0,Ca2CdPb
,0.0,Ca2Co9O13
,0.0,Ca2CuWO6
mp-304,1.0,Ca2Ge
mp-29809,0.0,Ca2GeN2
,0.0,Ca2Mn9O13
mp-18907,0.0,Ca2MnAlO5
,0.0,Ca2NiIrO6
mp-2923,0.0,Ca2Os2O7
mp-20723,0.0,Ca2PbAu2
mp-1189528,3.68,Ca2ScSbO6
mp-2517,1.9,Ca2Si
,3.45,Ca2SmTaO6
mp-22735,0.9,Ca2Sn
,0.0,Ca2Sn2F3
mp-866503,2.32,Ca2SnS4
,0.0,Ca2Ti9O13
,0.0,Ca2TlCd
,0.0,Ca2ZnRh
mp-31479,0.0,Ca3(GaPt)2
mp-27997,0.0,Ca3Al2Ge3
mp-30366,0.0,Ca3Au
mp-12699,0.0,Ca3Au4
,4.2,Ca3Bi(PO4)3
,0.0,Ca3BiAs
,0.0,Ca3BiSb
mp-23095,0.0,Ca3Cu2(ClO2)2
mp-20581,0.0,Ca3In
,1.45,Ca3La2(SnS4)3
mp-844,1.55,Ca3N2
,0.0,Ca3PbN
,1.4,Ca3Sb2
,0.0,Ca3SbN
,0.0,Ca3Sn2S7
,1.65,Ca3Ti2(SiO4)3
mp-10554,0.0,Ca3TlN
,0.0,Ca3Zr17O37
,0.0,Ca4Al3O10
,2.76,Ca4Bi6O13
,2.6,Ca5(Bi7O13)2
mp-30367,0.0,Ca5Au2
mp-6632,6.53,Ca5B3O9F
mp-570356,0.0,Ca5Ir
mp-17564,0.0,Ca5Sb3
,0.0,Ca5Sn4S13
mp-542496,0.0,Ca6Ag16N
mp-579544,0.0,Ca6Cu2Sn7
,0.0,CaAgF5
mp-568920,0.0,CaAu5
mp-865,4.5,CaB6
,0.0,CaCdPd2
,0.0,CaCdSi
mp-1882,0.0,CaCu5
,0.0,CaEu2O3
,0.0,CaEuO2
mp-2741,9.92,CaF2
mp-11431,0.0,CaGa3Ni2
mp-567485,0.0,CaGaAu3
mp-541310,0.0,CaGaGe
mp-13286,0.0,CaGe2
,0.0,CaHfZn
mp-11287,0.0,CaHg2
mp-30031,5.98,CaI2
mp-20846,0.0,CaIn2Ir
mp-20838,0.0,CaIn4Ir
mp-20378,0.0,CaInAu
mp-570689,0.0,CaInPt
mp-4243,0.0,CaIrO3
mp-5795,3.25,CaMg2N2
mp-4864,0.0,CaMgSn
mp-20233,0.0,CaMnSn
mp-774,0.0,CaNi5
,0.0,CaOsO3
mp-20034,0.0,CaPb
,0.0,CaPd3C
,0.0,CaPrZn2
mp-4190,4.4,CaSnO3
,2.4,CaTaNO2
,0.0,CaTi4O8
,0.0,CaTiO2
,0.0,CaVO2
mp-541276,0.0,CaYbInSe4
mp-1725,0.0,CaZn2
,0.0,CaZn3
mp-542953,0.0,CaZn3Ni2
mp-1734,0.0,CaZn5
mp-7204,3.7,CaZnSO
mp-4452,3.4,Cd(GaS2)2
,1.17,Cd(In15Te23)2
,3.76,Cd(PS2)2
,0.72,Cd0.01Ga0.99Sb0.99Te0.01
,1.72,Cd0.01Hg0.99Se1
,0.76,Cd0.01In0.99Te0.01As0.99
,0.73,Cd0.02In0.98Te0.02As0.98
,0.71,Cd0.03In0.97Te0.03As0.97
,0.69,Cd0.04In0.96Te0.04As0.96
,0.74,Cd0.05Ga0.95Sb0.95Te0.05
,0.68,Cd0.05In0.95Te0.05As0.95
,0.68,Cd0.06In0.94Te0.06As0.94
,0.68,Cd0.07In0.93Te0.07As0.93
,0.78,Cd0.1Ga0.9Sb0.9Te0.1
,0.69,Cd0.1In0.9Te0.1As0.9
,0.06,Cd0.204Hg0.796Te1
,0.12,Cd0.23Hg0.77Te1
,0.21,Cd0.28Hg0.72Te1
,0.8,Cd0.2Ga0.8Sb0.8Te0.2
,0.42,Cd0.2In2.4Ag0.4Te4
,0.28,Cd0.35Hg0.65Te1
,0.35,Cd0.37Hg0.63Te1
,1.1,Cd0.3Hg0.7Se1
,0.27,Cd0.3Hg0.7Te1
,0.95,Cd0.4Hg0.6Se1
,0.8,Cd0.5Hg0.5Se1
,0.39,Cd0.5In2.25Ag0.25Te4
,0.19,Cd0.5In2.2Ag0.4Te4
,0.7,Cd0.6Hg0.4Se1
,0.54,Cd0.75In2.1Ag0.2Te4
,0.55,Cd0.7Hg0.3Se1
,0.45,Cd0.8Hg0.2Se1
,0.29,Cd0.8In2.1Ag0.1Te4
,1.35,Cd0.99Ga0.01Sb0.01Te0.99
,0.29,Cd0.99Hg0.01Se1
,0.35,Cd0.9Hg0.1Se1
mp-1204954,4.29,Cd12Ge17(B4O29)2
mp-703595,0.0,Cd13I28
,2.4,Cd1Se0.01S0.99
,2.23,Cd1Se0.2S0.8
,2.13,Cd1Se0.35S0.65
,2.05,Cd1Se0.45S0.55
,1.93,Cd1Se0.65S0.35
,1.68,Cd1Se0.99S0.01
,0.0,Cd2AgRh
,0.47,Cd2InAgTe3
,0.7,Cd2InCuTe3
,0.85,Cd2InCuTe4
,0.0,Cd2PbO4
,2.56,Cd3AgPS6
,3.9,Cd3Bi(PO4)3
,0.2,Cd3Bi2
,1.23,Cd3In2(Te2S)2
mp-2441,0.5,Cd3P2
,0.3,Cd3Sb2
,3.81,Cd3Te2MoO10
mp-28914,2.19,Cd4P2Br3
mp-29746,2.17,Cd4P2Cl3
mp-568545,2.17,Cd4P2I3
mp-29044,1.83,Cd4Sb2I3
,1.25,Cd4Sb3
,1.29,Cd5Ga2(Te3S)2
,0.85,Cd6P7
,3.14,Cd8B5O15F
mp-2642,0.0,CdAg
,2.49,CdAg2(PS3)2
mp-1197203,2.32,CdAg2GeS4
mp-1025294,0.0,CdAsPd5
,0.0,CdAuO2
mp-550553,3.08,CdBiClO2
mp-27934,4.47,CdBr2
mp-22881,5.7,CdCl2
mp-1195655,3.33,CdCu(SeO3)2
mp-13982,2.05,CdCu2GeS4
mp-10967,1.2,CdCu2GeSe4
mp-1078292,1.37,CdCu2SnS4
mp-16565,0.96,CdCu2SnSe4
mp-241,6.0,CdF2
,4.35,CdHIO4
mp-570838,1.45,CdHg4(AsI2)2
mp-567910,1.89,CdHg6(As2Br3)2
mp-571579,3.8,CdI2
mp-1191962,4.3,CdIClO3
,0.6,CdIn
,1.02,CdIn8Te13
,1.66,CdInCuSe3
mp-1132,2.3,CdO
,4.85,CdP4PbO12
mp-1696,0.0,CdPd
mp-1194,0.0,CdPt
mp-15638,0.0,CdRhF6
mp-567556,1.4,CdSb2Se3Br2
,3.4,CdSb4MoO10
mp-754329,3.0,CdSnO3
mp-3286,0.0,Ce(AlZn)2
mp-20908,0.0,Ce(BC)2
mp-568182,0.0,Ce(CoAs)2
mp-22165,0.0,Ce(CoB)4
mp-1006321,0.0,Ce(CuSb)2
,0.0,Ce(HO)3
,1.11,Ce(InS2)3
mp-21089,0.0,Ce(MnGe)2
mp-2965,0.0,Ce(MnSi)2
mp-607725,0.0,Ce(PPt2)2
mp-5173,0.0,Ce(SiAu)2
mp-4537,0.0,Ce(SiNi)2
mp-3826,0.0,Ce(SiPd)2
,1.25,Ce1.3Lu0.7S3
mp-1198305,1.93,Ce10Se14O
mp-28370,3.5,Ce15B8N25
,2.01,Ce1Mn0.5Se1O1
mp-18287,0.0,Ce2(SbPd3)3
,0.3,Ce2(SnSe3)3
mp-16484,0.0,Ce2Al2Co15
mp-574273,0.0,Ce2Co5B2
mp-9277,0.0,Ce2CrN3
,0.0,Ce2Cu(NO)2
mp-1078159,0.64,Ce2Fe(SeO)2
mp-654,0.0,Ce2Fe17
,1.1,Ce2Ge2Se7
,1.7,Ce2GeSe5
,0.0,Ce2S2O
mp-20973,1.12,Ce2S3
mp-22678,0.0,Ce2Sb
,1.75,Ce2Se3
mp-542664,0.0,Ce2SiSeO4
,0.0,Ce2Ti2O7
mp-574021,0.0,Ce2ZnNi2
mp-31079,0.0,Ce3(Al3Ru)4
mp-21393,0.0,Ce3Al
mp-10036,0.0,Ce3AlC
mp-680695,0.0,Ce3B2(ClO2)3
mp-606102,0.0,Ce3In3Ru2
mp-645694,1.1,Ce3LuSe6
mp-866500,0.0,Ce3MnAlS7
mp-639904,2.0,Ce3MoO7
mp-683997,0.0,Ce3NbS3O4
,0.0,Ce3Pd5
mp-569913,0.0,Ce3SiPt5
mp-558609,0.0,Ce3Ta(ClO2)3
,0.0,Ce3TaO7
mp-606703,2.3,Ce4(GeS4)3
mp-23252,0.0,Ce4Bi3
mp-579188,0.0,Ce4FeSe6O
,1.69,Ce4InSbSe9
mp-1006390,0.0,Ce4Si3Rh4
,0.5,Ce4Te7
mp-571312,0.0,Ce5(SiN3)3
,0.0,Ce5CuSe8
mp-510493,0.0,Ce5Ge3
mp-570175,0.0,Ce5Si3
mp-570060,0.0,Ce6B2(CBr)3
,1.99,Ce8Sb2S15
,0.0,Ce8U2O21
,0.0,Ce9SmO20
mp-31420,0.0,CeAgSn
,0.0,CeAl2Pd5
mp-7225,0.0,CeAl2Pt3
mp-20338,0.0,CeAl3Ni2
mp-19843,0.0,CeAlO3
mp-9400,0.0,CeAlSi2
mp-8948,0.0,CeAsPd
mp-607004,0.0,CeAsSe
mp-11593,0.0,CeB2Ir3
mp-639306,0.0,CeBC
mp-1204806,2.34,CeBiW2O9
mp-31173,0.0,CeCd2Ag
,0.0,CeCdAu2
mp-644499,0.0,CeCoGeH
mp-510560,4.85,CeF3
,0.0,CeGaO3
mp-24011,0.0,CeHSe
mp-702,0.0,CeHg
mp-20449,0.0,CeInIr
mp-30507,0.0,CeIr5
,0.0,CeLu3
mp-31175,0.0,CeMg2Ag
,0.0,CeMgAg2
mp-13435,0.0,CeMgNi4
mp-19934,0.0,CeMgPt
mp-13254,0.0,CeMgZn2
mp-1192442,2.52,CeMoO4F
mp-2493,0.7,CeN
mp-7550,0.0,CeNbO4
mp-20194,3.41,CeO2
mp-1102302,0.0,CeOs2
mp-22217,0.0,CePd5
,0.0,CePrO2
mp-1018117,0.0,CeRh
mp-680698,0.0,CeSI
,0.0,CeSbO3
mp-777413,3.2,CeScO3
mp-15653,0.0,CeSi2Ni
mp-3284,0.0,CeSi2Pt
mp-29535,0.0,CeSiI
mp-21441,0.0,CeSiIr
mp-505005,0.0,CeSiOs
,1.9,CeTaN2O
mp-638100,2.4,CeTl2P2S7
mp-20603,0.0,CeTl3
mp-1018669,0.0,CeTlZn
mp-13207,0.0,CeZnPO
,0.0,Co(PO3)4
,0.0,Co(WO4)2
,0.2,Co1Te1.88
mp-10055,0.0,Co2B4Mo
mp-1102616,0.0,Co2Ge
,0.0,Co2O3
mp-18855,3.6,Co2Te3O8
,0.0,Co3H
mp-20456,0.0,Co3Se4
mp-2157,0.0,Co3W
,0.0,Co5Ge7
,0.0,Co5RuO8
mp-567747,0.0,Co7Mo6
,0.0,Co7Re17O48
mp-452,0.4,CoAs3
mp-22546,0.0,CoAsRh
mp-553946,0.6,CoAsS
mp-505511,0.2,CoAsSe
,0.0,CoCu2Sn
mp-21237,0.0,CoGe
,0.0,CoH2(SN)4
mp-1025557,0.0,CoMoP2
mp-448,0.0,CoN
,0.0,CoOF
mp-14285,0.35,CoP2
mp-1944,0.45,CoP3
,0.4,CoPS
mp-755,0.17,CoSb2
mp-1317,0.49,CoSb3
mp-568349,0.0,Cr(FeSe2)2
mp-542188,0.0,Cr(MoS2)2
,0.0,Cr10Sb3Te7
mp-22803,0.0,Cr2CuS4
mp-22625,0.0,Cr2CuTe4
mp-19821,0.0,Cr2GeC
,0.0,Cr2HO4
mp-5602,0.0,Cr2HgSe4
mp-27512,0.0,Cr2NiS4
mp-19399,3.4,Cr2O3
,0.0,Cr2P3O11
,0.0,Cr2SbTe
,0.0,Cr3N2
,0.0,Cr3Ni(PO4)6
mp-7806,0.0,Cr3P
mp-27840,1.59,Cr3Se4
,0.0,Cr4As3
,0.0,Cr4Cu3Te8
mp-1196316,0.0,Cr7C3
mp-20717,0.0,CrAs
mp-1197022,1.8,CrB2(PbO2)6
,2.4,CrBi2I2O11
,0.0,CrCo2Bi
mp-10394,0.0,CrCoGe
mp-570863,0.0,CrCoPt2
,0.0,CrCu2Si
,0.0,CrFe2Sb
mp-21495,0.0,CrFeP
mp-504919,0.0,CrH9(CN2)3
,0.0,CrIrO4
,0.0,CrIrO6
,0.0,CrNi3
mp-4989,0.0,CrNiAs
,0.0,CrNiP2O9
mp-19177,0.23,CrO2
mp-510421,1.4,CrO3
mp-19146,2.25,CrPbO4
mp-22498,0.14,CrSb2
mp-11191,1.3,CrSi2
,0.17,CrTe2
mp-570837,0.0,Cs(AsRu)2
mp-17022,0.0,Cs(MoO3)3
,2.1,Cs0.4K0.6P1Se6
,1.0,Cs1.13Cd1.13Bi2.87Se6
,1.28,Cs1.43Cd1.43Bi2.57S6
,3.16,Cs10Cd4Sn4S17
mp-1078250,2.19,Cs2AgBiBr6
mp-1078258,2.77,Cs2AgBiCl6
mp-1019602,4.13,Cs2Al2B2O7
mp-1019605,6.31,Cs2Ba3(P2O7)2
,2.63,Cs2Cd(PSe3)2
,1.66,Cs2Cd0.25Hg5.75S7
,1.84,Cs2Cd1.35Hg4.65S7
,1.7,Cs2Cd2Bi2S5
mp-1201213,4.76,Cs2Cd3(B4O7)4
mp-567386,2.48,Cs2Cd3Te4
mp-28497,0.0,Cs2CrCl4
,2.4,Cs2Cu(PS3)3
mp-1190579,1.6,Cs2Cu2Sb2S5
,1.38,Cs2DyCu3Te4
,3.26,Cs2Ga2S5
,1.95,Cs2Ga2Se5
,2.15,Cs2Hg(ICl)2
mp-540574,2.56,Cs2Hg3I8
mp-1105419,2.8,Cs2Hg3S4
mp-17905,1.63,Cs2Hg6S7
,1.0,Cs2La1.19Bi8.81S16
mp-966802,7.3,Cs2Li3(BO2)5
mp-1195667,2.04,Cs2MgGe3Se8
mp-1195633,1.92,Cs2MgSn3Se8
,0.0,Cs2Mo15S19
mp-558211,0.0,Cs2NaCoF6
,0.0,Cs2NaMgF6
mp-554858,0.0,Cs2NaMnF6
mp-15223,2.19,Cs2NbCuSe4
,1.6,Cs2P2PdSe6
mp-31285,1.5,Cs2PdSe8
,2.4,Cs2Pt(IO3)6
,0.0,Cs2SCl6F
mp-1191118,0.62,Cs2Sb
,0.0,Cs2SeClF6
,6.53,Cs2SiB4O9
,2.06,Cs2Sn(PSe3)2
mp-1195304,2.34,Cs2Sn3(SbS5)2
mp-573763,3.5,Cs2Te
mp-23405,2.12,Cs2TeBr6
mp-540957,1.5,Cs2TeI6
mp-640389,2.8,Cs2Th(PS3)3
mp-10488,2.44,Cs2Ti(AgS2)2
mp-8684,1.77,Cs2VAgS4
,4.3,Cs2Zn3(SeO3)4
,3.33,Cs2ZnGe3S8
mp-1194749,2.31,Cs2ZnGe3Se8
,1.07,Cs2ZnGe3Te8
mp-1194701,2.12,Cs2ZnSn3Se8
,2.74,Cs39Ga53(Se16Cl)6
mp-542220,0.6,Cs3As
mp-27544,2.5,Cs3Bi2Br9
mp-669458,1.8,Cs3Bi2I9
mp-1019615,6.53,Cs3Li4(BO2)7
,0.3,Cs3NaZn2Ge21
mp-683903,1.35,Cs3Nb2AsSe11
mp-1201443,3.22,Cs3Nb9(TeO8)4
,3.27,Cs3PW3O13
mp-10378,1.6,Cs3Sb
mp-579560,2.3,Cs3Sb2Br9
mp-23029,1.89,Cs3Sb2I9
,2.96,Cs3Sn3Cl7F2
mp-541084,0.0,Cs3V2Cl9
,2.0,Cs4Ag9(SbS3)4
mp-1204289,1.02,Cs4BiAs3Se7
,1.14,Cs4Ga4Si19
mp-1195417,2.0,Cs4Ge(PSe3)4
mp-1202502,1.95,Cs4Ge5(PbS4)4
,2.2,Cs4In8GeSe16
mp-680246,2.35,Cs4Zr3S14
,1.85,Cs5Bi(PSe3)4
mp-581739,0.0,Cs5Mo21Se23
,2.17,Cs5P5Se12
,0.22,Cs6.4Na1.6Ga8Ge38
mp-866615,2.7,CsAg2AsS3
,2.04,CsAg2TeS6
mp-9206,0.65,CsAg5Te3
mp-28610,0.0,CsAgCl3
mp-554408,2.04,CsAgSb4S7
mp-2667,2.3,CsAu
mp-3977,7.42,CsB3O5
mp-23163,0.55,CsBi2
mp-567928,0.43,CsBi3Se5
mp-541378,1.39,CsBiS2
,1.07,CsBiSe2
,0.0,CsCaO3
,3.09,CsCd4Ga5S12
,2.21,CsCd4Ga5Se12
,1.67,CsCd4Ga5Te12
,1.62,CsCd4In5Se12
,1.42,CsCd4In5Te12
mp-1191636,2.58,CsCdBO3
,2.4,CsCdInSe3
mp-574426,2.4,CsCeCdSe3
mp-574472,1.94,CsCeHgSe3
,1.7,CsCu(SbS2)2
mp-1196438,2.3,CsCu2AsS3
,1.63,CsCu2SbS3