mp_id,formula,band_gap,fidelity
mp-763275,Li4Co3Cu2Sb3O16,0.0,0
mp-569465,Cs2Nb6PbCl18,1.0644,0
mp-9275,Th2Ta6O19,3.2316000000000003,0
mp-35327,Al(CN)3,5.0623000000000005,0
mp-774502,NbSb3(PO4)6,0.0,0
mp-755169,Tl6S,0.0,0
mp-721582,H2S,4.0299,0
mp-10461,NaSr3SbO6,2.9189,0
mp-19374,K2SrNi(NO2)6,2.1971,0
mp-697926,LiCd2HSe2O7,3.5103999999999997,0
mp-9398,V4SiSb2,0.0,0
mp-558192,NaPO3,5.146199999999999,0
mp-1041945,CaCr(SiO3)2,2.5566999999999998,0
mp-733968,BaCaP2(HO4)2,5.327,0
mp-6892,Na6Mg2C4SO16,4.5304,0
mp-567437,Pd(Se4Cl)2,1.3384999999999998,0
mp-1029250,Te2MoW3(Se2S)2,0.0,0
mp-510547,Cu2H3ClO3,0.0,0
mp-1047657,Mg(CoO2)2,0.21740000000000048,0
mp-1045893,Zn2Ni9O13,0.0,0
mp-6668,LiTiPO5,3.0591999999999997,0
mp-5746,MgTe2O5,2.3736000000000006,0
mp-979950,AcYbMg2,0.0,0
mp-568062,DyTlSe2,2.1858000000000004,0
mp-20022,CeGeIr,0.0,0
mp-1028922,MoW3(Se3S)2,0.6959,0
mp-640389,Cs2Th(PS3)3,2.2752999999999997,0
mp-13447,Zn13Rh,0.0,0
mp-743514,Na3VH11IO13,0.177,0
mp-762222,Li2CuF4,0.9750000000000001,0
mp-11659,BaTi(BO3)2,2.3876999999999997,0
mp-30317,Sr2AuN,0.0,0
mp-865604,Li5Mg,0.0,0
mp-766367,Dy5(ReO6)2,0.0,0
mp-862806,Er4Ga16Co3,0.0,0
mp-28319,PtI2,1.2250999999999999,0
mp-707775,K2B5H5O11,4.8926,0
mp-755867,Lu2Sb2O7,1.4236000000000004,0
mp-756443,Er2TiO5,3.0241999999999996,0
mp-19113,CoTeO3,2.1368,0
mp-762856,Li2Fe(PO4)2,0.0,0
mp-18343,BaMgP2O7,5.322800000000001,0
mp-1029775,BaMnN2,0.0,0
mp-773058,Ba6Ti7(Sb3O14)3,0.0,0
mp-557970,SrCu(TeO3)2,0.0,0
mp-697624,Zr6Al2NiH10,0.0,0
mp-696136,Li10Sn(PO6)2,3.3917,0
mp-5033,Tl2SiF6,4.976,0
mp-33667,LiDyS2,1.9741999999999997,0
mp-675692,LiTi2O4,0.0,0
mp-12537,Ti2GaC,0.0,0
mp-676605,Y6O5F8,5.0318,0
mp-542132,YbCuAs2,0.0,0
mp-19397,Ba2Na(NiO2)3,0.5345,0
mp-28501,K2(NbCl3)3,1.0867999999999998,0
mp-673017,CuPO4,0.0,0
mp-685242,Sr7Al12O25,1.1673,0
mp-1019515,Ba3Ga3N5,1.4175999999999997,0
mp-3997,Sm(CuSi)2,0.0,0
mp-5111,YbCuGe,0.0,0
mp-672266,CSNOF5,4.0702,0
mp-770693,Li3MnAl2O6,1.4060000000000001,0
mp-642659,V2H,0.0,0
mp-735584,Rb2FeH2C5(N3O)2,2.7814,0
mp-8260,NaGdS2,1.8266999999999998,0
mp-1018704,GdAlZn,0.0,0
mp-15703,BeCN2,3.8512999999999993,0
mp-675792,Ga2HgTe4,0.22270000000000012,0
mp-978016,LaSn2Pd,0.0,0
mp-865587,Y2CuRh,0.0,0
mp-560745,AuN5O14,1.9901,0
mp-768734,Sr2CaI6,3.5507999999999997,0
mp-12899,HoSi,0.0,0
mp-570054,CdI2,2.3541,0
mp-867744,LiTi3O4,0.0,0
mp-650960,Hf(ClO4)4,5.2235,0
mp-504520,RbEu3F10,0.0,0
mp-9672,K2NiP2,0.6395,0
mp-1046039,V5O7,0.5505999999999998,0
mp-1984,TaS2,0.0,0
mp-752793,Li2AgF3,1.9647999999999999,0
mp-690522,Mo2Cl4O,1.0866,0
mp-567767,CoCN2,0.0,0
mp-722267,Na5H7(Se2O9)2,3.2662,0
mp-566801,VO2,0.3535999999999999,0
mp-775938,TiO2,2.0838999999999994,0
mp-561299,As2Pb4S6ICl,1.8290000000000002,0
mp-744317,K2MoH2S2O9,2.9941000000000004,0
mp-774414,Ti3Mn(PO4)6,0.0,0
mp-774235,LiCr3O4,0.045099999999999696,0
mp-850251,Na2Ti9O19,1.7631999999999999,0
mp-622633,Nb6Co7,0.0,0
mp-567144,Sb,0.0,0
mp-556038,Ba3In(BO2)9,4.7243,0
mp-22337,Hf5Ga3,0.0,0
mp-23819,Al2P2H9NO11,5.2559000000000005,0
mp-759553,As3H12C4S5N,1.9453,0
mp-9463,ZrGeSb,0.0,0
mp-974972,Rb3Hf,0.0,0
mp-760580,Li2AgF3,1.9705,0
mp-696087,LaP2H2O9,0.7138,0
mp-1018166,AlTc2,0.0,0
mp-4841,LaCuS2,1.2324000000000002,0
mp-770353,LiCr2(SO4)3,0.0,0
mp-976072,NaAc2Pb,0.0,0
mp-13513,SrNiGe2,0.0,0
mp-9920,TiS3,0.22849999999999948,0
mp-754891,Zr5N5O2,0.0,0
mp-558595,Ba6Ru3(ClO6)2,0.0,0
mp-23734,MgP(HO)7,5.2566,0
mp-230,SbO2,1.8829999999999991,0
mp-510570,CaMn4(CuO4)3,0.0,0
mp-6939,Sr(BIr)2,0.0,0
mp-628599,YbBi2IO4,0.0,0
mp-973170,ScCdAu2,0.0,0
mp-9619,Th(FeP3)4,0.5338000000000012,0
mp-864973,Dy2CdIn,0.0,0
mp-1022,K2S,2.322,0
mp-1044704,Ca(SnO2)2,0.0,0
mp-998391,RbTlBr3,0.0,0
mp-1045736,Zn(MoO3)2,0.7704,0
mp-973316,NaLi3,0.0,0
mp-30441,Be17Nb2,0.0,0
mp-23682,KH3(CO2)2,4.8037,0
mp-3120,Tm2Cu2O5,0.30810000000000004,0
mp-3183,DyBRh3,0.0,0
mp-763763,Li4Cr3Fe2Co3O16,0.0,0
mp-5157,Ca(PRu)2,0.0,0
mp-866036,EuRuO3,0.0,0
mp-7041,CaHgO2,2.125,0
mp-27579,Na4P2O7,4.416,0
mp-16002,U2Ta6O19,0.0,0
mp-16834,Zn3(AsO4)2,2.1388000000000003,0
mp-11607,Si3N4,4.026700000000001,0
mp-1045878,CaSn5O7,0.0,0
mp-555825,Na4Sc2Si4O13,4.6001,0
mp-21119,CeNiSn,0.0,0
mp-620369,TaAg7S6,0.5110000000000001,0
mp-754827,Tm2TeO2,0.41440000000000055,0
mp-626450,PH3O4,5.6683,0
mp-754823,ErTlO2,1.3714999999999997,0
mp-1048406,BaYNi4O7,0.0,0
mp-1014333,C3N,0.0,0
mp-1009130,MnN,0.0,0
mp-569292,ZrCuH8C2NCl6,2.0864000000000003,0
mp-684949,Ca2F,0.0,0
mp-5156,ThP2O7,5.3892999999999995,0
mp-676095,Na3Pr5Cl18,4.3891,0
mp-1041784,Mg(CuO2)2,0.0,0
mp-19865,Ce(MgSi)2,0.0,0
mp-568659,CuH8C2(N6Cl)2,0.6377999999999999,0
mp-541813,RbMgF3,6.6647,0
mp-607124,Dy5(In2Ni)2,0.0,0
mp-24242,CuHOF,0.0,0
mp-18308,CaZn2(PO4)2,3.7871999999999995,0
mp-35152,Sr2H5Rh,0.5802999999999998,0
mp-761675,Li2Cr3CoO8,0.5895999999999999,0
mp-29710,Hg4P2O7,1.5817,0
mp-1009823,BeB2,0.0,0
mp-6931,Sr(AlSi)2,0.0,0
mp-754199,BaSrI4,2.8453,0
mp-1047152,IrWO6,0.0,0
mp-974411,Re3Tc,0.0,0
mp-6404,BaCa2(PN2)6,4.0725999999999996,0
mp-684810,BaSm5Al3Si9N20O,2.766,0
mp-567583,CsSbCl6,1.9983,0
mp-1042380,SbAs2O7,0.0,0
mp-1017578,HfBRh3,0.0,0
mp-753670,CaPbI4,2.8227,0
mp-28067,ThIN,2.699,0
mp-9915,LiBeP,1.1585,0
mp-772671,Li5CrO4,1.5454,0
mp-862654,LaGaAu2,0.0,0
mp-5820,Ce(CoP)2,0.0,0
mp-2923,Ca2Os2O7,0.0,0
mp-17539,KAsOF4,3.7145,0
mp-571436,SnI4,1.5183,0
mp-1009079,CrTe,0.0,0
mp-631582,AlTc2Pb,0.0,0
mp-772063,BaLaCl5,4.2395000000000005,0
mp-974795,Rb3Ti,0.0,0
mp-1016831,HgIrO3,0.0,0
mp-3702,FeCuPt2,0.0,0
mp-977286,Li3Sm,0.0,0
mp-554665,SiO2,4.8029,0
mp-541037,CsCuO,1.1227,0
mp-978093,Ho2S3,2.4745,0
mp-769634,Na3CrPCO7,2.4999000000000002,0
mp-561351,SiO2,5.4512,0
mp-21338,U(Mo3S4)2,0.0,0
mp-568157,H8C2BrN,4.7465,0
mp-7263,CaGaN,0.0,0
mp-10091,KV(CuSe2)2,0.8213000000000004,0
mp-977538,ErZnRh2,0.0,0
mp-774310,Li10Cr2Fe3Co3O16,0.0,0
mp-531600,Na3B5Se9,2.8213,0
mp-1042041,MnZnP2O7,3.0374,0
mp-675880,Cu2SnTe3,0.0,0
mp-779754,Na5Ni2As(CO4)4,0.0,0
mp-1018721,HfO2,4.668200000000001,0
mp-567999,Np(CrGe)2,0.0,0
mp-504894,MgH12SeO9,5.0692,0
mp-542,SrHg,0.0,0
mp-579,CrC,0.0,0
mp-29642,ZrBi2,0.0,0
mp-28634,KI3F16,4.1785,0
mp-11226,Tb3Al,0.0,0
mp-1042359,MgTaBiO5,3.3202000000000003,0
mp-863025,Rb2MgP4(HO2)8,5.3654,0
mp-764501,Na8FeO6,0.017100000000000004,0
mp-652366,MoPb5O8,2.4221999999999997,0
mp-765385,LiV(CO3)2,1.8899,0
mp-17325,Ba5Sn3,0.0,0
mp-21129,Sr2Cu2O5,0.0,0
mp-769603,LiVSO4F3,1.1838,0
mp-556953,RbPS3,1.8263000000000003,0
mp-1018763,Li3DySb2,0.0,0
mp-182,SrGa2,0.0,0
mp-975138,RbWO3,0.0,0
mp-672368,UVN2,0.0,0
mp-760825,LiCu3F10,0.0,0
mp-561181,SiO2,5.6107,0
mp-510032,Ge3Os2,0.8459000000000003,0
mp-29062,ThZr2F12,5.4973,0
mp-14716,Nd2Au5F21,1.7722,0
mp-29468,Rb6Cl4O,1.6658000000000002,0
mp-10421,RbAuC2,2.1978999999999997,0
mp-32581,Pr2Te3,0.8827999999999996,0
mp-30184,H4C7O,2.0472,0
mp-23126,KAs4IO6,2.3453999999999997,0
mp-1009533,PdC,0.0,0
mp-12018,NdAl4Ge2Au,0.0,0
mp-568611,KCuPSe3,1.0053,0
mp-769471,Fe3Co2P6WO24,0.006400000000000183,0
mp-9807,KDy(CO3)2,4.3497,0
mp-672657,Hf6Co16Ge7,0.0,0
mp-23270,Th3Bi4,0.09229999999999983,0
mp-754699,NaTi2O3,0.0,0
mp-850916,LiCoOF2,0.22899999999999998,0
mp-1020683,NaCa(PO3)3,5.4403999999999995,0
mp-10752,Er,0.0,0
mp-567699,HgB2(CN)8,4.6143,0
mp-3941,LiYF4,7.3177,0
mp-765310,Li5Ni2O2F5,2.1843000000000004,0
mp-758311,Li2CuSiO4,0.0,0
mp-684968,BaYbAl2SiN5O2,1.1311,0
mp-8116,K(MoS)3,0.0,0
mp-758302,LiAgF2,1.4668,0
mp-971769,Tm,0.0,0
mp-12337,NaLa2OsO6,0.5168999999999997,0
mp-27716,KTlO,1.1655000000000002,0
mp-3263,USO,0.0,0
mp-30826,Pd13Pb9,0.0,0
mp-676338,MgIn2O4,1.2957,0
mp-680246,Cs4Zr3S14,1.7154,0
mp-774609,Na5Li3Ti5O14,3.1152999999999995,0
mp-776229,Ti2N2O,1.0034,0
mp-4073,Sm(CoB)2,0.0,0
mp-756948,Li4Cu3SbO8,0.0,0
mp-771642,Sr2CaI6,3.5577999999999994,0
mp-6754,TmNi2B2C,0.0,0
mp-776461,BaNb3NO7,1.2513,0
mp-2458,TbO2,0.0,0
mp-540905,YAlGeO5,3.811,0
mp-567777,La9Sb16Br3,0.22140000000000004,0
mp-555953,Na2Cu2Si4H4O13,0.18369999999999997,0
mp-3136,NaNbO3,1.5249,0
mp-631492,BaScIr,0.0,0
mp-1922,RuSe2,0.3113999999999999,0
mp-13917,LiCaGe2,0.0,0
mp-695597,NaMg3Si4O11F,3.1069999999999998,0
mp-706679,NaH2SO4,0.9236,0
mp-643431,AgH4WS4N,1.7101,0
mp-982069,YTmIr2,0.0,0
mp-23145,Na4Al3Si3ClO12,4.6948,0
mp-15919,BeAgPO4,2.6504000000000003,0
mp-1044867,BiO2,0.40429999999999966,0
mp-862690,Ac,0.0,0
mp-708015,Na2CuH20C12(N2O3)6,0.8796999999999999,0
mp-772434,Li4CrO4,1.7266000000000001,0
mp-764630,Cr3(CuO6)2,0.11769999999999992,0
mp-32906,La2S3,1.9200999999999997,0
mp-704235,Ni7(PO4)6,0.0,0
mp-7090,NaMgSb,1.0359000000000003,0
mp-1046807,Ca(Cu2O3)2,0.0,0
mp-865026,Mn2VSi,0.0,0
mp-1048048,Sr2GaBi2O7,0.0,0
mp-6528,Cs2NaAlF6,6.697,0
mp-4488,Sr(FeAs)2,0.0,0
mp-29680,Ta2Bi4O11,2.7997000000000005,0
mp-35712,Mg(GaO2)2,2.4173000000000004,0
mp-540813,K3ReC4(N2O)2,2.3828,0
mp-1005760,Tl3Os,0.0,0
mp-5532,Sr2TiO4,1.9141999999999997,0
mp-567789,InI3,2.2746,0
mp-1581,As2O3,3.6199999999999997,0
mp-31054,La3(VN3)2,0.0,0
mp-625913,TeHO3,2.1791,0
mp-769368,Rb4SnO3,2.0364000000000004,0
mp-19048,BaWO4,4.8822,0
mp-772528,MnZnO3,0.1149,0
mp-756006,LiSbS,0.4235000000000002,0
mp-33397,Cd(GaSe2)2,0.0,0
mp-1047902,BaZnMoF7,3.8422000000000005,0
mp-5444,Y3Ga5O12,3.3529000000000004,0
mp-542449,Sc5Cl8,0.0,0
mp-770210,CaY2O4,3.6651,0
mp-867739,Nb3GeS6,0.0,0
mp-530545,In4GeSe4,0.6203000000000003,0
mp-22237,CeMgCu2,0.0,0
mp-1041307,HoZn(WO3)2,0.9379,0
mp-756981,K2SbPCO7,3.8332999999999995,0
mp-1045011,Sr2YCr2O7,0.0,0
mp-755954,BaSr2I6,3.6180999999999996,0
mp-767145,Mg8V5O16,0.7310999999999996,0
mp-4681,NaNbO3,2.3639,0
mp-29016,SrThBr6,2.0636,0
mp-32310,Ba3Ta2NiO9,3.3673,0
mp-20543,Pr3SnC,0.0,0
mp-675169,Bi14SO24,1.1040999999999999,0
mp-761629,Li17V16O32,0.6445999999999996,0
mp-675755,TiCu3O4,0.0,0
mp-676737,K9(NbAs3)2,0.607,0
mp-581361,Ba3La2C5O15F2,3.9044,0
mp-555836,Sn2PClO4,2.5705999999999998,0
mp-778510,LiFeF4,3.1302,0
mp-568666,RbAuI3,0.7023999999999999,0
mp-6493,CaMgSiO4,4.6294,0
mp-8360,RbTe,0.8245999999999998,0
mp-30475,CaHg11,0.0,0
mp-20191,Si3Ru2,0.3775000000000013,0
mp-770532,Mn2PO5,0.6947999999999999,0
mp-2468,ErHg,0.0,0
mp-760635,Yb4Br6O,3.0092,0
mp-8035,B4C,0.0,0
mp-755401,Na3CuO2,1.3658,0
mp-1598,Na3P,0.40460000000000007,0
mp-6312,Sr2CuCO5,0.0,0
mp-18560,NpPO4F,0.0,0
mp-17535,B3Ru7,0.0,0
mp-562345,Cs2Si2O5,4.2397,0
mp-642648,KP(HO)2,5.1321,0
mp-579637,K2In2Sb3,0.8028,0
mp-1048321,Ba2YMn3O7,0.0,0
mp-555893,Pr3CuSiS7,1.5888,0
mp-1035222,Mg14CuSiO16,0.0,0
mp-976185,NaBeO3,0.0,0
mp-768125,Na3GePCO7,3.6381,0
mp-866136,Zr6Al16Ru7,0.0,0
mp-4071,Er2(NiB2)3,0.0,0
mp-10908,AlRe,0.0,0
mp-764274,VOF3,3.4012000000000002,0
mp-18740,V2Cd2O7,2.5559000000000003,0
mp-31105,RbBi,0.37770000000000015,0
mp-3922,AgSbS2,1.3685000000000005,0
mp-755864,TiCu(PO4)2,0.2059000000000002,0
mp-779913,Fe3OF5,1.7289,0
mp-567679,TiGaRh,0.0,0
mp-1029826,Li6OsN4,0.0,0
mp-556201,AgSbC2N2(ClF3)2,3.637,0
mp-8868,Ba3NaN,0.0,0
mp-1027894,Mo3W(SeS)4,0.7101,0
mp-568746,Bi2Pd,0.0,0
mp-973586,Lu(AlC)3,0.15270000000000028,0
mp-13265,ErAgSn,0.0,0
mp-756638,NbRhO4,0.8726000000000003,0
mp-777314,Sn2N2O,0.11629999999999985,0
mp-973451,Nd2BiO2,0.0,0
mp-775909,ZrO2,3.4318,0
mp-642844,BaH5BrO3,4.7616,0
mp-560196,Al(HO)3,5.2031,0
mp-862378,Sc2TcAu,0.0,0
mp-559611,Yb4Ge3(O3F2)3,0.0,0
mp-29069,Na(CuS)4,0.0,0
mp-862720,Sr2CdIn,0.0,0
mp-1018766,Li3LaAs2,0.5023,0
mp-8704,K3SbSe4,1.4219000000000002,0
mp-3015,HoInCu,0.0,0
mp-7205,LiInSiO4,3.0286999999999997,0
mp-1047280,Ba(SnO2)4,0.0,0
mp-684108,Li2Ti(PO3)5,0.2597999999999998,0
mp-766015,SbOF,3.5122,0
mp-861979,Ir2S3,1.1241999999999992,0
mp-29718,AgW3Br7,2.6908000000000003,0
mp-971684,C3N4,1.1814999999999998,0
mp-764295,Na4(NiO2)9,0.5914999999999999,0
mp-28544,Sm4Cl6O,0.0,0
mp-20222,Sr2NbInO6,3.3866,0
mp-766558,NaMn3O6,0.5113000000000001,0
mp-7935,USbTe,0.0,0
mp-558535,La10Se14O,1.5518999999999998,0
mp-30165,Sr7Re4O19,0.0,0
mp-505001,Rb3ZnBr5,3.593,0
mp-769564,NaVPCO7,1.5078,0
mp-555544,SiO2,4.3206999999999995,0
mp-8354,LaF3,5.761,0
mp-558933,Na2Ge4O9,2.8749000000000002,0
mp-29184,Cr2P,0.0,0
mp-530033,B8O,2.4459,0
mp-674984,CuSi2P3,0.0,0
mp-1019785,K2Si(S2O7)3,5.2762,0
mp-601243,ZnH8C4(NO3)2,0.03400000000000003,0
mp-8848,TaFeTe3,0.0,0
mp-863708,KPuO3,0.0,0
mp-1018071,MnFe2Ge,0.0,0
mp-979948,SmNiB4,0.0,0
mp-13376,SmZnRh,0.0,0
mp-556905,GdMg(BO2)5,3.0152,0
mp-10401,Tl2SnF6,4.2911,0
mp-553972,CuCSN,2.3965999999999994,0
mp-13005,LaCrGe3,0.0,0
mp-15071,Na6FeSe4,0.0,0
mp-15845,SrLi4N2,0.8873999999999999,0
mp-567398,Sr3MgGeN4,1.4132000000000002,0
mp-20356,Ce2SbO2,0.0,0
mp-8311,Si3NiP4,0.3308,0
mp-568476,BiPd2Pb,0.0,0
mp-19474,Ba2V2O7,3.4599,0
mp-861505,Pr2MgTl,0.0,0
mp-2933,Pr2(ReB2)3,0.0,0
mp-3250,Ni2SbTe2,0.0,0
mp-555320,Li4CO4,5.351,0
mp-11521,ScNi,0.0,0
mp-13925,Cs2NaYF6,6.865399999999999,0
mp-505002,Sc5As3,0.0,0
mp-976272,LiCa3,0.0,0
mp-6745,LiGa(SiO3)2,4.2722,0
mp-18960,ErVO4,2.9661,0
mp-775850,Mn2Fe3Sb(PO4)6,2.248,0
mp-676448,CsTiZnOF5,3.1448,0
mp-973364,Mg,0.0,0
mp-24202,Th4H15,0.0,0
mp-973783,H2,8.7958,0
mp-15985,Zr3(Cu2Ge)2,0.0,0
mp-29825,K2Si2O5,4.3282,0
mp-642804,KCu2P2H3(O4F)2,0.3575999999999999,0
mp-31179,Ho(Al2Fe)4,0.0,0
mp-778220,Li4V3Cr2Fe3O16,1.0240999999999998,0
mp-10381,K2CuSb,1.1110999999999998,0
mp-556431,PH10C2NO4,5.6895,0
mp-553932,GaPO4,4.4398,0
mp-27869,Ba2PCl,1.2595,0
mp-975577,K3La(AsO4)2,3.857,0
mp-558648,CSCl(OF)3,4.6094,0
mp-30770,LuMn5,0.0,0
mp-769559,MgCr3(SO4)6,0.0,0
mp-863723,Ho2MgGe2,0.0,0
mp-720384,CaH6C2(NO)4,4.6548,0
mp-3524,LiPN2,3.8015999999999996,0
mp-615141,Pb(ClO2)2,1.1622,0
mp-768146,Na2AlPCO7,5.0719,0
mp-18843,Ca3FeRhO6,1.4702000000000002,0
mp-680219,UPb(SeO4)2,2.0090000000000003,0
mp-774092,Na3CoO3,1.1156,0
mp-11519,NiSnRh2,0.0,0
mp-767710,Li2VP2O7,2.455,0
mp-770558,MnP2O7,1.3002,0
mp-766463,Na3GaB4O9,4.3701,0
mp-570199,Ti3Pd5,0.0,0
mp-627632,Si4H2O9,5.1536,0
mp-10417,KSbO2,2.0081999999999995,0
mp-631696,Ca2CoW,0.0,0
mp-706339,MgB3H15O13,5.1450000000000005,0
mp-541787,Na8Hg3,0.0,0
mp-17371,K2ErF5,6.7986,0
mp-1030742,MoW(SeS)2,0.6036999999999999,0
mp-561243,Sr2CuClO2,2.3842999999999996,0
mp-772605,NaSnAsCO7,1.7495,0
mp-8208,Mg(PtO2)3,0.2984,0
mp-973372,MgIn5,0.0,0
mp-554015,CsK(ClO4)2,5.5306999999999995,0
mp-19291,NaVPO5,1.2667000000000002,0
mp-505148,ThPbI6,2.4192,0
mp-756560,Li2Ti3O7,2.4853999999999994,0
mp-20192,HfMnSi,0.0,0
mp-973091,LaHoMg2,0.0,0
mp-558588,BaPt2S3,1.3299999999999996,0
mp-669648,Ho6Mn23,0.0,0
mp-780399,Na6B4Sb2PO16,0.0,0
mp-29306,B5(H2N)2,2.8741000000000003,0
mp-4300,Yb2Si2O7,0.0,0
mp-784,KZn13,0.0,0
mp-540668,BS2,2.5564,0
mp-1334,Y2C,0.0,0
mp-556269,S,2.3573,0
mp-989608,Cs2NaAsCl6,3.062,0
mp-20762,USnPd,0.0,0
mp-15073,BaSmC2O6F,4.282,0
mp-3949,K7LiSi8,1.6927,0
mp-541111,AlGaCl4,4.2218,0
mp-675879,Ag3SI,0.3197000000000001,0
mp-8732,Ta2Se,0.0,0
mp-686347,Ca16MgAl14Si9O56,1.0407000000000002,0
mp-554263,Ca2BClO3,4.5762,0
mp-4805,Gd2SO2,2.0389999999999997,0
mp-2628,DyCo2,0.0,0
mp-861995,PaNi2Sn,0.0,0
mp-643248,Na2AlH4ClO4,4.5161999999999995,0
mp-1029063,TeMoWSeS2,0.18599999999999994,0
mp-676765,Na21In5O15,0.04180000000000006,0
mp-9744,BaAsPd,0.0,0
mp-2730,HgTe,0.0,0
mp-18686,ZrCr5P3,0.0,0
mp-554363,Pr2Ti3(ClO4)2,2.968,0
mp-721047,CaH8(ClO2)2,5.1371,0
mp-3613,NaErS2,2.3333,0
mp-625894,Ba(H2O3)2,0.2549,0
mp-7297,Cs2SnF6,5.3373,0
mp-570929,SnH46C18(Br2N)2,3.7146,0
mp-1045720,ZnCr2O6,0.0,0
mp-20506,NbNiTe2,0.0,0
mp-1042648,MgMn4O6,0.0,0
mp-850898,LiMn2(BO3)2,0.022599999999999953,0
mp-562610,SnO2,0.4320000000000004,0
mp-545730,AgCNO,1.3014,0
mp-17319,NdCo9Si4,0.0,0
mp-990424,C,0.19369999999999998,0
mp-672314,Mg3In,0.0,0
mp-754725,UCd3O6,1.7871000000000001,0
mp-2741,CaF2,7.118,0
mp-581955,CsSi2SbO7,3.2270999999999996,0
mp-1043346,ZnNiSnP2O9,2.7112000000000003,0
mp-775462,LiFeCuO4,0.0,0
mp-698654,NaMgFe(SO4)3,1.8083,0
mp-1044582,Mg(BiO2)2,1.4444000000000008,0
mp-975579,NdBeO3,0.0,0
mp-971906,TmBi3,0.0,0
mp-1008223,CaSe,3.1581,0
mp-1041696,CaSnP2O7,3.6382000000000003,0
mp-18297,Ba3(GaN2)2,1.4937000000000005,0
mp-78,Ge,0.0,0
mp-5125,Na3FeSe3,0.0,0
mp-558491,BaAlBO3F2,6.0642000000000005,0
mp-3904,Mg2GeO4,3.0734000000000004,0
mp-781015,La2WO6,3.1375000000000006,0
mp-865922,FeH4Br3N,0.0,0
mp-28202,K3NO4,3.6478,0
mp-642974,SrCrBi12(Mo2O17)2,2.5918999999999994,0
mp-1018699,EuZnGe,0.0,0
mp-14430,Sr2YRuO6,0.18269999999999964,0
mp-29241,Ca3SnO,0.0,0
mp-9212,NaAlO2,3.7968,0
mp-1019741,HeSiO2,6.4897,0
mp-1048407,P2WO7,2.7679,0
mp-865533,Ti2ReOs,0.0,0
mp-672334,Sr4GaCN5,1.4465,0
mp-5088,NaGdO2,3.1172000000000004,0
mp-1046306,Ca4Sn5(TeO6)3,1.3655,0
mp-631412,NbRu2Cl,0.0,0
mp-1152,TiRh3,0.0,0
mp-16194,Rb2SiO3,3.4349,0
mp-998325,RbCaI3,3.4331,0
mp-684856,As24S25,0.08910000000000018,0
mp-754327,Ho2CuO4,0.0,0
mp-697653,MgH8(NF2)2,5.9988,0
mp-755373,Lu2GeO5,3.4948000000000006,0
mp-758916,Ga2P3H12(NO4)3,4.130699999999999,0
mp-13947,Rb2HfF6,7.1297999999999995,0
mp-997036,CdAuO2,0.8887,0
mp-707277,AgH2C2N3O,3.2954,0
mp-755183,DyTlO2,1.4823999999999997,0
mp-777730,Li3BiB8O15,4.0047999999999995,0
mp-989609,YWN3,1.1225999999999998,0
mp-677093,Cr(InS2)2,0.0,0
mp-20415,GdPbAu,0.0,0
mp-22303,Rb3InS3,2.262,0
mp-756014,Ba4HfO6,3.0638000000000005,0
mp-541751,Ni4(Bi4I)3,0.0,0
mp-989643,LaCoN3,0.4855999999999998,0
mp-28232,MgTi2O5,2.7175,0
mp-20184,USiRh,0.0,0
mp-775156,LiMnSiO4,1.2671999999999999,0
mp-776579,Ba3(YI6)2,2.8015,0
mp-34586,Co2RuO4,0.0,0
mp-22192,Si3Ru2,0.5510999999999999,0
mp-1046824,Sr2YAlCo2O7,0.5050999999999997,0
mp-662810,Na5Lu(SiO3)4,3.6801999999999997,0
mp-568727,ErRh3C,0.0,0
mp-698522,Sb3P2H6C2NO9,0.03469999999999995,0
mp-767649,Li2VF6,2.0042999999999997,0
mp-1047266,TiZn2WO6,1.4272999999999998,0
mp-558895,Cs2KVF6,2.5362999999999998,0
mp-505130,CsReO4,4.1562,0
mp-1042577,Mg(NiO2)2,0.0,0
mp-559171,Ba3Ho2(PS4)4,2.3798999999999997,0
mp-20074,SrIn2,0.0,0
mp-1048167,BaSb4O7,1.2605,0
mp-1339,NbIr3,0.0,0
mp-23667,RbP(HO2)2,5.2329,0
mp-554918,BaY6Si3B6(O12F)2,5.2315000000000005,0
mp-697260,CdH8C2S2(BrN2)2,3.1704,0
mp-778554,Li2MnF4,3.8539000000000003,0
mp-556672,Sn(SeO3)2,2.5822000000000003,0
mp-1041749,Zn(MoO2)2,1.4453999999999994,0
mp-981549,Y3Th,0.0,0
mp-12854,ZnCu2GeTe4,0.0,0
mp-761527,LiMnPO4,3.4354,0
mp-15805,Mn3ZnN,0.0,0
mp-5824,Hg2NO4,1.557,0
mp-555314,Sr7Zr(Si2O7)3,4.4268,0
mp-773198,Mn5Fe3O16,0.0,0
mp-763225,Li2VO2F,0.27300000000000013,0
mp-8231,ZrSO,0.7935999999999996,0
mp-642787,Y2V2O7,1.0612000000000004,0
mp-631521,BaHfMo,0.0,0
mp-568511,Ca7(B7Rh10)2,0.0,0
mp-30757,La5Sn4,0.0,0
mp-776680,TiMn2Ni3(PO4)6,0.0,0
mp-14232,LiBO2,7.2810999999999995,0
mp-559770,Nd4Ga2O9,3.6012999999999997,0
mp-1879,SmS,0.0,0
mp-10780,RbSmSe2,1.899,0
mp-651728,VSb2NCl14,1.1919,0
mp-981247,Zn7Sb8Ru9,0.0,0
mp-13392,NdCu,0.0,0
mp-698056,Na2CdH4(SO5)2,3.9833,0
mp-755300,TiO,0.0,0
mp-10199,Mn(NbS2)3,0.0,0
mp-6775,Na3Sr(BO2)5,4.561,0
mp-28313,NdCl2,0.0,0
mp-556146,SnCSNF,2.8283000000000005,0
mp-755690,NbO2,0.0,0
mp-775307,Co3Ni(PO4)4,0.0,0
mp-3638,Cu2P2O7,0.0,0
mp-6270,Ba2LiReO6,1.8198000000000003,0
mp-771025,Na2SiBSbO7,2.1623,0
mp-20893,GeO2,0.9845000000000002,0
mp-17504,Sr3(GeAs2)2,0.7808999999999999,0
mp-204,CeFe2,0.0,0
mp-770748,Gd3TaO7,2.6961,0
mp-2354,Ti3Hg,0.0,0
mp-3727,Nd3NbO7,2.6460000000000004,0
mp-15204,Tb2Si5Ni3,0.0,0
mp-29536,Ag5CF4,1.9276999999999997,0
mp-1047474,ZnAsWO5,2.5755,0
mp-861657,Li2PrAl,0.0,0
mp-766457,LiSnP2O7,1.5229000000000004,0
mp-758675,TeH14C2(NO2)4,2.7712,0
mp-556506,MnCdF5,0.7610000000000001,0
mp-772198,Be(Bi3O5)4,0.0,0
mp-31185,MnAlFe2,0.0,0
mp-734875,H2Pb4C(Cl3O2)2,3.55,0
mp-978918,TbZr,0.0,0
mp-753564,Sn3(OF)2,0.0,0
mp-17861,Tm3Sb,0.0,0
mp-559025,BaErAgS3,0.9929999999999999,0
mp-631345,KZr2Nb,0.0,0
mp-11420,YGa,0.0,0
mp-19755,Li(TiS2)3,0.0,0
mp-1041202,Be3Si3(BiO6)2,3.3148,0
mp-1046674,MgCoSiO5,0.0,0
mp-778103,Cd(BO2)2,3.3861,0
mp-27396,NiCl2,0.7567000000000002,0
mp-634676,KHS,3.2295,0
mp-674361,LiNbO3,2.9621,0
mp-542239,Cs5Hg19,0.0,0
mp-752606,Li2CuSiO4,0.0,0
mp-1042186,BaAlCu2O5,0.0,0
mp-559393,K2CS2(O3F)2,5.6438999999999995,0
mp-16163,Pr3ReO8,1.8172000000000001,0
mp-2645,YbNi5,0.0,0
mp-865782,Yb3SiO,0.0,0
mp-1347,Th3P4,0.26010000000000044,0
mp-1046226,Sr2YCu2BiO7,0.0,0
mp-1041850,ZnCo(SiO3)2,2.9414999999999996,0
mp-2409,Ni5Sb2,0.0,0
mp-41742,CaNdTiMnO6,0.22529999999999983,0
mp-623135,Bi3(TeCl5)2,1.3882999999999999,0
mp-769010,Li6Bi5O14,0.0,0
mp-31837,LiFeP2O7,2.3937000000000004,0
mp-767431,Na3SrPCO7,4.052899999999999,0
mp-23382,Y4CI5,0.0,0
mp-7561,SrPd3O4,0.0,0