mp_id,formula,band_gap,fidelity
mp-559879,PS2N(Cl3O2)2,2.6486,0
mp-776597,NaCu(PO3)4,0.7094,0
mp-1048330,Ba2AlCr3O7,0.0,0
mp-16223,TlTe,0.0,0
mp-19915,Sr4In2N,0.0,0
mp-722516,Zn2PHO5,3.2351,0
mp-975511,InSb3,0.0,0
mp-7482,RbHgF3,0.6523999999999999,0
mp-626094,Al(HO)3,4.3399,0
mp-1009731,ReC,0.0,0
mp-676865,BaGeO3,1.4290000000000003,0
mp-510294,Sr2CuWO6,0.0,0
mp-624668,BaSb2,0.0,0
mp-35714,La5TlS8,1.3953999999999995,0
mp-601817,Cu4H3C2N5,1.9312,0
mp-568934,Ti4AlN3,0.0,0
mp-972121,Tm(Al2Cr)4,0.0,0
mp-754084,Cu2OF2,0.0,0
mp-1046155,SrZnCu(PO4)2,0.6802999999999999,0
mp-8426,K2Se,2.0909,0
mp-1297,Tl9Pd13,0.0,0
mp-17313,Mg3BeAl8O16,5.1747,0
mp-759658,LiAgF2,1.5270000000000001,0
mp-549487,Sr2Cu(IO)2,0.0,0
mp-37747,LiHS,3.4957000000000003,0
mp-864932,Mg2AgPt,0.0,0
mp-551,BaAl2,0.0,0
mp-19479,Na5La(MoO4)4,4.0741000000000005,0
mp-1019794,K3LiP2O7,4.876,0
mp-29709,Hg3PO4,0.7357,0
mp-11277,ScBe5,0.0,0
mp-3400,Lu(MnGe)6,0.0,0
mp-707849,H2Os5(CO)16,1.7437,0
mp-1027424,Te2Mo3W(SeS2)2,0.0,0
mp-32495,Li3V3(PO4)4,1.8287,0
mp-977195,Li3Er,0.0,0
mp-995217,H2C3,1.9448999999999999,0
mp-7651,ThSiO4,4.662000000000001,0
mp-676212,Na2Sr3P4,0.8050000000000002,0
mp-542791,ZrNCl,1.7226999999999997,0
mp-21405,InSe,1.0795999999999997,0
mp-18946,VBO3,1.8227000000000002,0
mp-581693,BiS,0.0,0
mp-572892,GeS2,2.2648,0
mp-746364,CrH12Pd(NO)4,2.5521000000000003,0
mp-540424,Cr(PO3)4,0.2935,0
mp-5960,Ca3UO6,2.1498000000000004,0
mp-758848,Ti5NbO12,0.0,0
mp-4895,UTeAs,0.0,0
mp-706611,LiBeH4NF4,6.5775,0
mp-17801,Hf2CuGe4,0.0,0
mp-643655,LiAl2H6ClO6,5.1531,0
mp-29746,Cd4P2Cl3,1.3805999999999998,0
mp-1042654,ZnCu3(SnO3)4,0.03300000000000036,0
mp-554766,AgP(XeF5)2,1.3215999999999999,0
mp-769048,Li3NbS4,2.0896,0
mp-674333,Na3PO4,3.9098999999999995,0
mp-559089,PS2N3(Cl2O)2,3.945,0
mp-782664,Ti3MnO8,1.8236999999999999,0
mp-17329,PrS2,0.3243999999999998,0
mp-5213,CdSnP2,0.2684000000000002,0
mp-976060,Li3C,0.0,0
mp-1046311,Sr2YCu2AgO7,0.0,0
mp-15931,NdCrS3,0.0,0
mp-754892,Rb3ClO,0.4777,0
mp-1020643,Rb3Zn(BO2)5,4.1752,0
mp-2402,NaSi,1.1326,0
mp-758331,NdTa3O9,2.2516,0
mp-556258,Na3BeAl(SiO4)2,4.3245,0
mp-14568,BaMgF4,6.8004999999999995,0
mp-27823,SmClO,4.876199999999999,0
mp-997042,TlCuO2,0.4258000000000002,0
mp-667343,Re2(HgO2)5,1.1042999999999998,0
mp-562613,P2O5,5.540900000000001,0
mp-631417,ReRuCl2,0.0,0
mp-9610,Li2CN2,3.7218,0
mp-1296,ErB6,0.0,0
mp-541449,CrGeTe3,0.0,0
mp-978513,SmErMg2,0.0,0
mp-1043036,MgSn(GeO3)2,1.8365000000000005,0
mp-9718,Rb3BAs2,1.2949,0
mp-626104,U3(HO5)2,1.7838999999999998,0
mp-720267,BaB2H10O9,0.5958000000000001,0
mp-20140,Rb2FeCu(CN)6,0.0,0
mp-540904,ThI3,0.0,0
mp-861915,LiDy2Ir,0.0,0
mp-1837,TbCu,0.0,0
mp-568381,RbAu(CN)2,3.1199,0
mp-975385,RbBO3,0.0,0
mp-1027175,Te2Mo3W(SeS2)2,0.0,0
mp-865119,NaPrHg2,0.0,0
mp-12277,CaAgP,0.0045000000000001705,0
mp-567290,LaN,1.1159,0
mp-19839,LaGa2,0.0,0
mp-767014,Na5(WO3)6,0.0,0
mp-20915,Cs2NaMn(CN)6,0.03109999999999999,0
mp-989572,Cs2NaCaF6,0.0,0
mp-1027526,TeMoWSe2S,0.5397000000000003,0
mp-12007,HoCdCu4,0.0,0
mp-771045,La2SiO5,4.0614,0
mp-685068,YbBr3,0.0,0
mp-553993,SiO2,5.6413,0
mp-707289,H5C8NO2,2.8724,0
mp-1043980,LaMgFeSbO6,1.9064000000000005,0
mp-30367,Ca5Au2,0.0,0
mp-9788,SrPS3,3.1109,0
mp-2336,PrAl4,0.0,0
mp-12954,CuBS2,1.7433999999999994,0
mp-1458,Nb3Ir,0.0,0
mp-8943,PtF4,1.1225,0
mp-974617,Hg3Pd,0.0,0
mp-10098,YGeAu,0.0,0
mp-707040,CaAl2H16N9,1.1488,0
mp-30867,ScRu,0.0,0
mp-30600,TmCu5,0.0,0
mp-766570,Ce3Th4O14,1.8083999999999998,0
mp-561413,Rb2Tb3AlF16,0.0,0
mp-627334,Si2H2O3,1.6959999999999997,0
mp-983590,Be3Fe,0.0,0
mp-1019089,KMgAs,1.1621,0
mp-571634,Yb5Pb3,0.0,0
mp-758225,Bi10(Pb2O7)3,2.3528999999999995,0
mp-570248,NaC2N3,3.5755,0
mp-979254,SnGe3,0.0,0
mp-1472,ZrB2,0.0,0
mp-554894,MgTlP(H6O5)2,4.5212,0
mp-973974,K3Mo,0.0,0
mp-773139,Li4V3Sb5O16,1.2006000000000006,0
mp-1009132,HoBiPd,0.0,0
mp-555979,Li2Pr(NO3)5,3.6557,0
mp-1043075,Zn(W2O3)2,0.0,0
mp-29149,Li4NCl,1.7617,0
mp-11124,CsLaHgSe3,1.4529999999999998,0
mp-680570,Ti5P3,0.0,0
mp-721584,B5H8NO12,0.0,0
mp-769470,Li11Fe(WO4)7,2.8156,0
mp-627,NpSe,0.0,0
mp-571410,CsZr6BI14,0.7638000000000003,0
mp-7080,Li5(NiN)3,0.0,0
mp-780508,Fe5O7F3,0.0,0
mp-30134,Li8Al3Si5,0.0,0
mp-777670,Li4V3Cr3(SnO8)2,1.017,0
mp-567982,TaSn2,0.0,0
mp-541868,Te3MoCl16,0.0514,0
mp-31297,ScInPt,0.0,0
mp-675818,Li11TiAs5,0.2806000000000002,0
mp-972529,SmP3,0.0,0
mp-4438,CaSnO3,2.3301,0
mp-534901,Sr10P6BrO24F,4.8553,0
mp-4423,La2Ti2O7,2.746600000000001,0
mp-30148,BC2N,2.099400000000001,0
mp-21563,SrAlBO4,4.297899999999999,0
mp-752826,Al2O3,4.0173000000000005,0
mp-15644,DyB2C,0.0,0
mp-28278,Na2GeSe3,1.6128,0
mp-722189,H8PtN2(ClO)2,2.4202,0
mp-753130,Li4CuF7,0.1221000000000001,0
mp-1029118,Te2Mo(WS2)3,0.0,0
mp-20051,CeBPt4,0.0,0
mp-774358,Li2MnV(P2O7)2,0.47119999999999984,0
mp-22621,LaTiAgO4,1.4649999999999999,0
mp-1018061,FeH3,0.0,0
mp-21268,SiAs2,0.0,0
mp-755451,BaLa2Br8,3.1249000000000002,0
mp-984779,CeDy3,0.0,0
mp-21834,Nd6Fe13Sn,0.0,0
mp-4937,SNF,3.4515000000000002,0
mp-15813,Mn3W3C,0.0,0
mp-10023,La,0.0,0
mp-1048383,CrP2O7,0.0,0
mp-767633,Li4Ti9O20,1.8417000000000001,0
mp-769344,Ba4Ta2O9,3.3705999999999996,0
mp-22259,Yb2Ru2O7,0.0,0
mp-1545,Nb3Rh,0.0,0
mp-975797,PrSm3,0.0,0
mp-35005,Na3(WO3)4,0.0,0
mp-2747,TbPd3,0.0,0
mp-976903,NaNd3,0.0,0
mp-1025768,Te2MoW2(SeS)2,0.0,0
mp-13051,Sr2Si,0.0,0
mp-634434,NaHCN2,4.0009,0
mp-722397,MgP2H12O11,5.4433,0
mp-982635,Tm3Al2,0.0,0
mp-556176,Li2ZrF6,5.481199999999999,0
mp-9540,SmMgF4,0.0,0
mp-984356,CsIrO3,0.0,0
mp-980197,YbErPt2,0.0,0
mp-773163,Li2Fe3SnO8,0.0,0
mp-377,LuRh,0.0,0
mp-542664,Ce2SiSeO4,0.0,0
mp-10379,Hf3(Cu2Ge)2,0.0,0
mp-770850,Li2TiCo2O5,0.7144000000000004,0
mp-1610,TbS,0.0,0
mp-774255,K3CrPCO7,2.6393,0
mp-7189,AlPd,0.0,0
mp-777233,BaYF5,6.6724000000000006,0
mp-581862,Cs2NaAl(PO4)2,4.457400000000001,0
mp-754304,BaYI5,2.7805,0
mp-27980,U(OF)2,2.0451,0
mp-21165,PdSe,0.0,0
mp-974517,NdErMg2,0.0,0
mp-1008601,ZrAg2,0.001300000000000523,0
mp-755441,SrTaNO2,0.9817999999999998,0
mp-1692,CuO,0.0,0
mp-510544,SrSm2Nb2O9,2.1115,0
mp-770714,LiAlFeO4,0.0,0
mp-556553,SiO2,5.1327,0
mp-1002181,TcN,0.0,0
mp-19158,Mn3WO6,2.0382000000000002,0
mp-862705,AlZnIr2,0.0,0
mp-25946,Sb2P5O16,0.0757000000000001,0
mp-23084,BiPbClO2,2.068,0
mp-698702,CaSmMnSnO6,0.8956999999999997,0
mp-1187,ThIr2,0.0,0
mp-23220,YbCl2,5.5411,0
mp-771328,Rb4PbO4,1.7342000000000002,0
mp-9945,CoTe2,0.0,0
mp-1048352,Ba2Ca3Tl2(NiO3)4,0.0,0
mp-570108,ThC2,0.0,0
mp-23931,LiPH2O3,6.9796,0
mp-559786,NaAs4BrO6,3.0496999999999996,0
mp-677612,Nd4AlSi5(NO)7,1.3171,0
mp-1046672,Ca4Te3W5O18,1.1540000000000004,0
mp-9081,CsNdS2,2.1496,0
mp-504701,CsTiF4,0.0,0
mp-625604,H9BrO4,3.7298,0
mp-10555,Ba2LiReN4,1.7902,0
mp-33297,Mg2TiO4,2.5837000000000003,0
mp-1004753,PrB12,0.0,0
mp-12856,Pr(AlSi)2,0.0,0
mp-865130,Hf2MoRh,0.0,0
mp-10422,NaAuC2,0.0,0
mp-505701,NaP2H5O8,5.6429,0
mp-1044499,PrZn(SnO3)2,0.0,0
mp-14373,Y3B7W,0.0,0
mp-634984,Mg5(Si8Pd5)2,0.0,0
mp-861906,BaNa2Mg(PO4)2,5.0412,0
mp-7017,NaNbN2,0.8320000000000003,0
mp-541661,LiZr2(PO4)3,4.1295,0
mp-11771,CoCu2SnSe4,0.0,0
mp-18922,Mn5O8,0.5512999999999999,0
mp-20773,PuAs,0.0,0
mp-752676,TiBi2O5,2.5795000000000003,0
mp-567299,KC2IN2,4.5211,0
mp-774416,Ti3Cr(PO4)6,0.4171,0
mp-631364,TaOsPb,0.0,0
mp-1045921,Ta2TiZn2O8,0.0,0
mp-568437,Yb2Zn17,0.0,0
mp-1041489,Ca(BiO2)2,1.2355,0
mp-1030289,TeMoWSeS2,0.0,0
mp-19021,BaCo2(PO4)2,2.3069,0
mp-754203,SmErO3,4.6071,0
mp-393,Pd16S7,0.0,0
mp-560110,BaUTiO6,1.9643000000000002,0
mp-605839,Li2B2Rh3,0.0,0
mp-20774,NdCuSn,0.0,0
mp-989546,SrTcN3,0.0,0
mp-998297,CsSrBr3,4.1673,0
mp-753683,Sn2OF2,2.2466,0
mp-3789,Zn2SiO4,2.7537000000000003,0
mp-3536,MgAl2O4,5.1095,0
mp-13614,Rb2Be3Cd2F12,5.2364999999999995,0
mp-16164,Dy3Si3O10F,5.1089,0
mp-28428,K3Nb2Se11,1.0590000000000002,0
mp-765681,Co2O3F,0.0,0
mp-770124,GdTa7O19,2.7025,0
mp-1405,TbGe,0.0,0
mp-540111,FePO4,2.7434000000000003,0
mp-5036,ErPS4,2.1434,0
mp-30243,Mg3(HO2)2,3.7709,0
mp-555791,SiO2,5.7383999999999995,0
mp-18509,KBe3ZnF9,6.2447,0
mp-1410,DyN,0.05149999999999988,0
mp-9797,K(SbSe2)2,1.1093000000000002,0
mp-973455,LiMg2,0.0,0
mp-21267,Yb2InPd2,0.0,0
mp-10030,RuC,0.0,0
mp-7364,Ca(SiAu)2,0.0,0
mp-780127,Li9Mn2P4HO18,1.0722,0
mp-773160,LiCrCSO7,2.5005,0
mp-976679,HoSb3,0.0,0
mp-686614,TaTi9Al3Zn23O48,1.6732,0
mp-34036,NbBi3O7,2.1389999999999993,0
mp-1044311,TiZnCr(PO4)3,2.3403,0
mp-542854,Mg9Si5,0.0,0
mp-22315,HfCoSn,0.0,0
mp-23133,Sr2Cu3(BrO2)2,0.0,0
mp-1018719,HfTaNO3,1.8978000000000002,0
mp-28029,TcP3,0.4488000000000003,0
mp-734394,KAlP2H4O9,5.2367,0
mp-35717,LiDySe2,1.5621999999999998,0
mp-9,Y,0.0,0
mp-734377,KCdP3H8O13,4.4116,0
mp-17262,BaCu2(AsO4)2,0.0,0
mp-29526,BrNO3,2.1635999999999997,0
mp-540038,LiMo(PO4)2,2.4819,0
mp-979919,TaO3,0.0,0
mp-1017467,CaMnO3,0.0,0
mp-1046524,Ba2Tl2Zn2Fe3O10,0.0,0
mp-766170,Li9Ti5(SiO8)2,0.0,0
mp-866690,La17Al4(Si3N11)3,1.8771000000000004,0
mp-31025,Sc5NCl8,0.0,0
mp-780128,Fe2OF3,1.3111,0
mp-22892,RuBr3,0.0,0
mp-3553,KTeAu,0.0,0
mp-567498,Rb2NaTmCl6,5.0572,0
mp-676467,Na3Al2P2O8F3,4.7401,0
mp-866073,MgSnRh2,0.0,0
mp-20418,SiRh2,0.0,0
mp-559695,Cs2RbBiF6,4.7749,0
mp-505094,KMgV3Cu4O13,0.0020999999999999908,0
mp-548403,CaCO3,5.717699999999999,0
mp-16060,AgAuF4,1.0606,0
mp-556062,NaNb4Tl3P2O17,2.4915000000000003,0
mp-557570,TeAs(BrF2)3,3.0852000000000004,0
mp-779588,LiCu2PO4,0.6551,0
mp-644504,NdMg2Ag,0.0,0
mp-8147,K2As2Pd,0.6457999999999999,0
mp-30021,K5Sb4,0.0,0
mp-771495,Na6Co2As(CO4)4,0.0,0
mp-1344,Sm3Se4,0.0,0
mp-3415,Yb(SiRu)2,0.0,0
mp-14577,Rb4Ta2S11,1.7127000000000001,0
mp-30429,Ba8Ga7,0.0,0
mp-705116,Sr2MnMoO6,1.0287000000000002,0
mp-22561,Pr2ReC2,0.0,0
mp-1018096,Ba2NF,1.0924,0
mp-8263,KNa2BO3,2.7985,0
mp-772116,LaMgI5,2.6292999999999997,0
mp-23353,Cu2HgI4,0.5589000000000004,0
mp-675449,Pt4(O3F8)3,0.0,0
mp-30078,C3S8,1.7321,0
mp-505372,Np(BH4)4,0.0,0
mp-558212,KNaNdNbO5,3.4371,0
mp-555561,BaU(SiO4)2,2.3858999999999995,0
mp-1028830,Te2MoWSe2,0.26259999999999994,0
mp-10883,AlCrCo2,0.0,0
mp-18950,BaCa(FeO2)4,1.7786000000000002,0
mp-850397,Li4Cr2Fe5O12,1.2824999999999998,0
mp-17904,Nd2TiO5,3.3137999999999996,0
mp-11665,Ce2(Zn2Ge)3,0.0,0
mp-1029312,RbVN2,0.08360000000000012,0
mp-567485,CaGaAu3,0.0,0
mp-755007,CeOF,0.0,0
mp-774232,Li4Cr3Ni3(SbO8)2,0.0,0
mp-10994,TmCuAs2,0.0,0
mp-974042,Nd2Co12P7,0.0,0
mp-1034150,KRbMg14O15,2.014,0
mp-767556,NaTiPCO7,2.6902,0
mp-433,DyAl,0.0,0
mp-754246,TiSnO3,1.1151,0
mp-21883,VGaFe2,0.0,0
mp-1936,TaAs,0.0,0
mp-558702,CsMnF3,3.4542,0
mp-972415,YErAl2,0.0,0
mp-12965,ErNi4B,0.0,0
mp-684621,Cu13I15,0.0,0
mp-698318,CuSi2H18C9O2,2.955,0
mp-705293,Li3V2(PO4)3,1.9338000000000002,0
mp-10918,Rb2PdC2,1.5802,0
mp-643898,CaP2H2O7,5.6995,0
mp-8154,La2Ti2O7,2.9172000000000002,0
mp-30711,Nd2Zn17,0.0,0
mp-1045989,Sr2YTlCr2O7,0.0,0
mp-27405,SnAsF7,3.3358000000000003,0
mp-985299,Ag3N,0.0,0
mp-755403,Ba2Sc2O5,3.2205999999999997,0
mp-976143,PrDyZn2,0.0,0
mp-690241,Zr2Cr2F3,0.0,0
mp-3886,Zr2AlC,0.0,0
mp-755591,Dy2TeO6,2.5307,0
mp-773887,TiBi2O5,2.5742000000000003,0
mp-616407,N2O3,0.9366,0
mp-975336,KCSN,4.2439,0
mp-3717,LuBRh3,0.0,0
mp-7095,CeCoSi2,0.0,0
mp-1576,TmNi2,0.0,0
mp-864647,Hf2N,0.0,0
mp-861975,PaO3,0.0,0
mp-684783,Na2Pr4Br9NO,3.3379000000000003,0
mp-1023935,Te2Mo,1.0703,0
mp-954,BaB6,0.0,0
mp-989513,SrWN3,1.2675999999999998,0
mp-22878,MnBi,0.0,0
mp-569785,TlPd3,0.0,0
mp-569415,Nd5Co19B6,0.0,0
mp-556890,BaNaCr2F9,3.5693,0
mp-771975,Na2TbO3,0.0,0
mp-17235,Sm2Si2O7,5.105700000000001,0
mp-14244,Y3Si3Pd2,0.0,0
mp-16921,KNa4GeAs3,0.6355999999999999,0
mp-707395,NaH2SeO4,4.1128,0
mp-997570,H6CIN,4.0743,0
mp-866180,Li2YbPb,0.0,0
mp-6929,Ca2As2O7,3.3160000000000003,0
mp-13120,CeSi3Ru,0.0,0
mp-772826,K2LiTi2(AsO5)2,0.0,0
mp-709400,HgH4C4(Br2N)2,2.4168999999999996,0
mp-551685,Pb2O,0.0,0
mp-20666,SmIn2Rh,0.0,0
mp-720402,B10H13CSN,2.5385999999999997,0
mp-849583,YNb2NO5,2.2861000000000002,0
mp-643371,K2Sn(H2N)6,2.404,0
mp-19278,BaCoP2O7,3.0692,0
mp-23875,CuH4(ClO)2,0.4636,0
mp-975599,Pr3Er,0.0,0
mp-27499,BaTeS3,1.9088000000000003,0
mp-611623,U(CoP)2,0.0,0
mp-753708,TiOF,0.05730000000000057,0
mp-1029144,Te2MoWSe2,0.06750000000000034,0
mp-556202,Cu(CO)4,0.0,0
mp-15839,NdSbPt,0.0,0
mp-12128,Li2MgIn,0.0,0
mp-772869,Ta7InO19,2.0335,0
mp-9289,ZrSnTe,0.0,0
mp-22695,NdSnPd,0.0,0
mp-3680,Er2Fe14B,0.0,0
mp-866692,La3MnAlS7,1.2419000000000002,0
mp-766135,Sr6Bi2O11,1.0352999999999999,0
mp-7822,Sc5Si3,0.0,0
mp-1041232,BaMgAgF7,0.36739999999999995,0
mp-2266,YbAg,0.0,0
mp-673655,Cu9Se5,0.0,0
mp-859785,Li3Ni2OF5,0.4111999999999999,0
mp-752947,NaTiS2,0.0,0
mp-568847,K4GeSe4,2.0003,0
mp-29219,Ba2(Ni3B2)3,0.0,0
mp-7688,Li2CdGeO4,2.455,0
mp-19281,LaCrO3,2.1644999999999994,0
mp-770889,La2WO6,3.2227000000000006,0
mp-631464,KBePt,0.0,0
mp-567593,KBH4(CN4)2,4.7975,0
mp-777916,Li4Fe3Cu3(TeO8)2,0.0,0
mp-16718,Al6Tc,0.0,0
mp-571443,SrMgIn3,0.0,0
mp-995218,H4C5O2,3.3456,0
mp-864653,HoMgAu2,0.0,0
mp-4955,AlVCo2,0.0,0
mp-31475,Er4(Al8Pt3)3,0.0,0
mp-571103,In5AgSe8,0.25319999999999965,0
mp-773600,LiVSnO4,0.0,0
mp-764234,Li13Mn3Nb2O16,1.0312999999999999,0
mp-510401,GdP,0.0,0
mp-571091,CdI2,2.3649,0
mp-782643,Li5Mn6(BO3)6,0.44179999999999997,0
mp-7562,TaTl3S4,2.5325,0
mp-554831,Yb4Cl6O,5.176,0
mp-989589,LaMnN3,0.0,0
mp-865090,NaAcTl2,0.0,0
mp-1018137,KEuS2,0.0,0
mp-18490,Sr2SmNb(CuO4)2,0.0,0
mp-556014,Li3Ga(BO3)2,4.1585,0
mp-2971,U(CrC)4,0.0,0
mp-569915,Er5Rh3,0.0,0
mp-1020115,MgSiO3,4.5433,0
mp-9503,BaDyCuTe3,0.5288000000000004,0
mp-21025,Nd2Cu2O5,0.0,0
mp-696656,BH4O2F3,7.0555,0
mp-18305,Rb3AsSe4,1.3144,0
mp-35630,Pr2CdSe4,0.9727000000000001,0
mp-973442,Lu2AgPt,0.0,0
mp-14871,Li16Ta2N8O,3.4017,0
mp-18351,Sr3(GeP2)2,0.9214999999999995,0
mp-12750,SmGe2,0.0,0
mp-1186,ZrS2,1.0478000000000003,0
mp-695215,Y2Al9Si27(N15O)3,2.4673,0
mp-542629,Rb2Mo9Se10,0.0,0
mp-4196,NdFeSi2,0.0,0
mp-560045,H5CSN2Cl,4.3408,0
mp-4340,TbPO4,5.8675,0
mp-707151,Na2B4H20O17,5.0996,0
mp-772089,SrLaCl5,3.6632000000000007,0
mp-20202,MgSn4Ru,0.0,0
mp-757909,KP(HO2)2,5.2602,0
mp-1018681,DyZnIn,0.0,0
mp-611630,CaFeClO2,0.3702000000000001,0
mp-569564,Th2Al2C3,0.0,0
mp-675832,SrCeN2,0.9146000000000001,0
mp-850982,LiCo3(OF3)2,0.18589999999999995,0
mp-541827,Ba2Zn7F18,4.0535,0
mp-7664,Na6ZnO4,1.5335999999999999,0
mp-625841,Sr(H8O5)2,3.3502,0
mp-1044,UIr3,0.0,0
mp-7964,YAlO3,3.4964999999999997,0
mp-1041820,Bi(WO4)2,0.19019999999999992,0
mp-754415,Tb3NbO7,2.5783,0
mp-772898,AlGaO3,3.2132,0
mp-14070,RbAlO2,3.3716,0
mp-731,Mg3Hg,0.0,0
mp-2064,RbF,5.9045,0
mp-775962,Na4V2O5,0.38260000000000005,0
mp-17902,K3Na(RuO4)2,0.0,0
mp-769557,LiMnNbO4,0.5886999999999998,0
mp-1004377,HfB6,0.0,0
mp-21264,OsN2,0.0,0
mp-755015,NaLaO2,3.6668000000000003,0
mp-9384,CsAu3S2,2.3501,0
mp-568379,KInSnSe4,1.3747000000000003,0
mp-1028690,TeWS,0.0,0
mp-1028979,TeMoWSe3,0.0,0
mp-998536,RbCaBr3,4.2996,0
mp-27694,H3ClO5,5.4698,0
mp-634381,V2Zn2O7,2.0231000000000003,0
mp-542022,Sc2MnB2Rh5,0.0,0
mp-707953,ZnP2H11C2NO8,4.4996,0
mp-17146,K2S5,1.9298999999999997,0
mp-766600,Li4TiS4,2.372,0
mp-1008,NiHg,0.0,0
mp-10103,LiYbAlF6,7.6899999999999995,0
mp-505138,K2PdSe10,1.0629,0
mp-6134,LiCaAlF6,7.6448,0
mp-769650,Zr2Bi2O7,3.1127,0
mp-753673,BiOF,2.3179,0
mp-696512,NaH4IO2,3.6957,0
mp-31964,Li2Mn(PO3)4,4.101,0
mp-10102,KAgC2,2.4623999999999997,0
mp-25896,SbP2O7,0.11960000000000015,0
mp-759894,Bi7(O2F3)3,2.6676999999999995,0
mp-561999,CsAlAgF6,0.0,0
mp-569833,Zr2Ga,0.0,0
mp-560842,Cd2SiO4,1.0232,0
mp-29620,Sr5Bi3,0.0,0
mp-5238,GaCuS2,0.7056000000000004,0
mp-709350,Sr5As5HO18,3.2622,0
mp-1020610,Zn2SiO4,2.2492,0
mp-19261,Na3MnPCO7,3.2988,0
mp-755731,Ta2Pb2O7,1.6231,0
mp-997012,CuPdO2,0.0,0
mp-767471,Li5SbS,1.2902,0
mp-570595,DySiRu2C,0.0,0
mp-12746,Ce2Ga10Pd,0.0,0
mp-1007730,HfAl3,0.0,0
mp-569961,Sr8Mn2FeN8,0.0,0
mp-694875,Ba2Ca2Zn5Fe3O14,0.22609999999999997,0
mp-1043966,LaVFeO6,0.0,0
mp-720266,Re2H6PbC(NO5)2,3.1303,0
mp-650336,PCN2Cl3,3.4966999999999997,0
mp-1025752,Te4Mo2WSe2,0.04620000000000024,0
mp-53,P,0.0,0
mp-866280,CaSmRh2,0.0,0
mp-27493,Sn3(PO4)2,3.4768000000000003,0
mp-567510,BaSn2,0.0,0
mp-555016,CS3NO2F3,3.2456,0
mp-505046,Gd3Sb5O12,2.7146000000000003,0
mp-1045676,Nb2Zn2BiO8,0.0,0
mp-766259,SnH10Cl4O5,3.2828,0
mp-675172,TaAlO4,1.8382000000000005,0
mp-12782,YbAl2Ni,0.0,0
mp-1019747,K2Ca3Si3O10,4.1202000000000005,0
mp-756152,Sm4U2O11,0.06539999999999946,0
mp-1028828,Te2MoWSe2,0.05779999999999941,0
mp-11312,V3Cd,0.0,0
mp-1048685,CaV4O10,0.8309,0
mp-775334,V3Cu(PO4)4,0.24260000000000037,0
mp-680152,CdI2,2.3691000000000004,0
mp-675492,SrLa5F17,6.0367,0
mp-757872,Li2Ag3F6,0.19779999999999998,0
mp-976725,Hf3Au,0.0,0
mp-38070,Rb(TeO3)2,0.0,0
mp-31367,LiClO2,2.6926,0
mp-675570,Mn3(SiTe3)2,0.0,0
mp-560132,Nd2SiO5,4.7758,0
mp-570867,Er3Mn3Ga2Si,0.0,0
mp-684884,Ba4TlBiPb2O9,0.0,0
mp-762224,Li4Cu3Sb(PO4)4,0.0,0
mp-1030325,Te6Mo3WSe2,0.008199999999999985,0
mp-975288,RbNpO3,0.0,0
mp-1043964,CaSb3O7,0.0,0
mp-1008554,Al3V,0.0,0
mp-1044815,CaSb2P2O9,2.2596999999999996,0
mp-2497,GdZn,0.0,0
mp-561366,Ca(ClO2)2,2.5666,0
mp-768314,BiB2O5,0.0,0
mp-755790,HfPbO3,2.7562000000000006,0
mp-677164,CuAs2Pb6Cl7O6,2.2101,0
mp-862760,PrCdAg2,0.0,0
mp-4676,La3(B3Ru4)2,0.0,0
mp-756494,Na3GePCO7,4.187900000000001,0
mp-781055,Fe3OF5,0.0,0
mp-653287,Cr3Pb5F19,2.9497999999999998,0
mp-559969,CaLaGaO4,3.4555,0
mp-41634,K2SnH2OF6,3.8446999999999996,0
mp-1042364,CaTaBiO5,3.5884,0
mp-767,Yb3Ge5,0.0,0
mp-557741,Ba17Tm16Zn8Pt4O57,2.3147,0
mp-674187,Ba(IrO3)2,0.0,0
mp-21491,Y3GaCo3,0.0,0
mp-1029141,Te2MoW3(SeS2)2,0.0,0
mp-707138,Ag2PHO4,1.3237999999999999,0
mp-23650,TeSeS(NCl)2,2.0902,0
mp-684709,K3B17,0.0,0
mp-773202,Li5Mn5(SbO6)2,0.0,0
mp-764932,Li3Fe4(BO3)4,1.2706,0
mp-753160,BiOF,3.3537999999999997,0
mp-567177,KNb(AgSe2)2,1.4594999999999998,0
mp-769673,Tb2Bi2O7,0.0,0
mp-779077,Li24TiCr11O36,0.8887,0
mp-530027,Si6O13,2.0845000000000002,0
mp-12736,TbB2Rh2C,0.0,0
mp-559627,LiP3PbO9,4.7126,0
mp-669508,TaP2NCl12,2.8674,0
mp-510710,Cs2AgSbS4,1.4883000000000002,0
mp-10637,ThSb,0.0,0
mp-1029338,LiV2N3,0.0,0
mp-649470,K3Nd2(NO3)9,3.4785000000000004,0
mp-568005,CsYbBr3,4.3376,0
mp-698476,H2C3(N2Cl)2,3.6838,0
mp-559968,Na2NbAsO6,3.1214,0
mp-1607,YbCu5,0.0,0
mp-27274,AsCF3,3.3193,0
mp-973335,Hg2H6CN3Cl5,2.442,0
mp-16560,KEr2CuSe4,0.944,0
mp-5965,Tb3Ga5O12,3.2791,0
mp-780628,Na6Cr2B4PO16,0.0,0
mp-1030449,Te4Mo3WSe4,0.05369999999999919,0
mp-28542,Na3ErCl6,5.2280999999999995,0
mp-756086,Li5BiS4,1.5786000000000002,0
mp-973877,PaBO3,0.0,0
mp-972351,Tl,0.0,0
mp-1046856,Nb2Zn2CrO8,1.0086999999999997,0
mp-4376,BaAlF5,7.2832,0
mp-28996,Ag4Bi2O5,1.6389000000000005,0
mp-569807,RbTiBr3,0.0,0
mp-24473,BePH4NO4,5.082699999999999,0
mp-1044516,CaW3O7,1.0276000000000005,0
mp-17220,Rb3TaS4,2.8458,0
mp-558087,Na2Ca3(Si3O8)2,4.3043,0
mp-1040901,Ti2Zn(CuO4)2,0.3166,0
mp-770952,Li4Co3Ni(PO4)4,2.5693,0
mp-770812,SrCe2O4,0.0,0
mp-1023948,TeMoSe,0.46730000000000005,0
mp-2154,CeP,0.0,0
mp-28838,U3(SiC)2,0.0,0
mp-541317,KTi3Si2P6O25,0.0,0
mp-1418,FeNi3,0.0,0
mp-1044316,TiMnZn(PO4)3,0.0,0
mp-20509,Ba2Y(CuO2)4,0.0,0
mp-22611,InFe2CuSe4,0.0,0
mp-860798,NaAl11O17,4.3719,0
mp-7404,Na3SbO4,2.1241,0
mp-29452,Sc4BCl6,0.0,0
mp-30352,NaAg2,0.0,0
mp-555447,NaScB2O5,4.9199,0
mp-1361,IrSe2,0.04999999999999982,0
mp-19134,CaCrP2O7,2.9342,0
mp-558226,H2O,5.556800000000001,0
mp-28861,CsC8,0.0,0
mp-685819,Yb2TiO5,0.0,0
mp-676145,Lu(HO)3,3.2310000000000003,0
mp-560378,Ca3Ta4(O6F)2,3.8739,0
mp-865624,Li2HoTl,0.0,0
mp-740,NdTe3,0.0,0
mp-8018,K2RhF6,0.0,0
mp-864891,NaPO3,5.1221,0
mp-699008,Rb2MnV2(ClO3)2,1.2860999999999998,0
mp-5014,CuAgS,0.5629,0
mp-772290,LiAgO,1.0898999999999999,0
mp-23804,Mg2FeH6,1.9139999999999997,0
mp-652608,UWC2,0.0,0
mp-6192,Ba2DySbO6,3.4688,0
mp-567567,CdI2,2.3514999999999997,0
mp-774383,V4(OF3)3,1.472,0
mp-30535,Li2BeH4,0.0,0
mp-546643,K4CO4,1.8352,0
mp-675109,Y5O4F7,4.4956000000000005,0
mp-30461,BiPd2Pb,0.0,0
mp-850951,Li3MnV(P2O7)2,2.1375,0
mp-560572,Al(HO)3,4.9898,0
mp-673849,Si6O13,0.04090000000000005,0
mp-570693,SbSe3N2Cl7,1.699,0
mp-1027547,TeMo2Se2S,0.0,0
mp-756817,Li5Cu5(SbO6)2,0.0,0
mp-762996,FeOF,1.6906,0
mp-569446,NiPb,0.0,0
mp-625082,H2CO,0.022800000000000015,0
mp-975611,Ge3B,0.0,0
mp-12326,CaZn(GeO3)2,2.471,0
mp-686833,Sr7LaCu4(BiO3)8,0.6090000000000004,0
mp-755480,KRbO,1.2445,0
mp-3205,CaCO3,4.2614,0
mp-541448,Rb3(FeS2)2,0.0,0
mp-673644,Tb2S3,1.8720999999999997,0
mp-867965,Sm3MnAlS7,0.4783999999999997,0
mp-21503,YMgIn,0.0,0
mp-554053,SrGaBO4,3.7452,0