mp_id,formula,band_gap,fidelity
mp-556735,Rb2Bi4O7,2.6064000000000003,0
mp-554820,ZnS,2.0206,0
mp-21149,GdO2,0.0,0
mp-16137,K4CaU3O12,2.1025,0
mp-22276,Mn2InCo,0.0,0
mp-540671,Ti7Cl16,0.0,0
mp-10143,TiB,0.0,0
mp-753858,TiOF2,3.8973999999999998,0
mp-28163,K2PdF4,1.8732000000000002,0
mp-752418,La2Se2O,1.7862,0
mp-753309,Bi2OF4,3.9154,0
mp-562420,Cs3ClO,1.8351000000000002,0
mp-754073,Lu2TiO5,3.0518000000000005,0
mp-1730,BaGe,0.0,0
mp-706239,NaCa2Mg2V3O12,3.3296,0
mp-677335,GaPO4,4.6909,0
mp-3996,GaAsO4,3.0694,0
mp-569428,Pr2Fe14B,0.0,0
mp-560843,Na4Zr2Ti(CO4)4,3.1442000000000005,0
mp-865223,LuMgCd2,0.0,0
mp-558748,Sc2O3,3.4806,0
mp-774994,Li5Fe8(BO3)8,1.6197000000000001,0
mp-1018159,ErSb2,0.0,0
mp-707368,KP2H8SN7O2,4.5052,0
mp-570482,Ba(AlGe)2,0.0,0
mp-720876,Cs2CuH12(SO7)2,0.8262,0
mp-1041603,Zn(AgO2)2,0.0,0
mp-1048350,ZnCuO2,0.0,0
mp-1020624,NaBe(BO2)3,5.3609,0
mp-849441,LiVP3HO10,2.3312,0
mp-766139,Li2V2F7,0.3709999999999999,0
mp-7219,Na2ZrSe3,1.3176000000000003,0
mp-560026,Mg5B3O9F,5.118399999999999,0
mp-10617,Sr,0.0,0
mp-744574,CoH6(SeO4)2,2.9482999999999997,0
mp-961661,ZrSiPd,0.7448000000000006,0
mp-9254,Al2Te5,1.0356,0
mp-505271,Ni(SbO3)2,0.8810000000000002,0
mp-647035,La4C5Cl2,0.0,0
mp-684921,Na3CaAl4Si8ClO24,4.8269,0
mp-570512,LiWCl6,0.0,0
mp-31453,NbSbRh,0.0,0
mp-1029627,Mg2ReN3,0.2400000000000002,0
mp-684504,Li3Bi2(PO4)3,3.8819,0
mp-6872,K3SiN(OF2)3,3.3592,0
mp-26312,Li4Cu(PO4)2,0.0,0
mp-20536,CoSn,0.0,0
mp-720704,NaCa9ScZn9(SiO3)20,4.0947,0
mp-181,KGa3,0.21629999999999994,0
mp-4122,GaPO4,4.439100000000001,0
mp-1046249,SrCaCu(PO4)2,0.6105999999999998,0
mp-778019,Ag2H16O9,2.2358,0
mp-756436,FeO,0.6877000000000004,0
mp-21327,Rb3Ir(NO2)6,0.0,0
mp-29269,NaSbF4,4.3132,0
mp-23050,GdClO,2.9892000000000003,0
mp-773894,CaB2(H2O3)2,5.3586,0
mp-30307,DyBiRh,0.0,0
mp-655086,Nb2Br5,0.0,0
mp-697915,Yb3H8,0.0,0
mp-865307,Tm2CuIr,0.0,0
mp-975219,RbSr3,0.0,0
mp-600366,H8C3SeN2,3.2151,0
mp-23933,AlH3,2.1979,0
mp-769495,Na5Ni2P2(CO7)2,0.0,0
mp-558362,CaMgGeO4,3.6233999999999997,0
mp-569626,MgCl2,3.379,0
mp-568191,SrLuCuSe3,1.1246000000000005,0
mp-753940,KLiMnS2,0.5546000000000002,0
mp-863066,Ta6Pb4O19,1.7422999999999997,0
mp-475,SnP,0.0,0
mp-1014281,C3N,0.0,0
mp-571056,CsSn,1.1371000000000002,0
mp-866481,Co2(SnTe)3,0.41710000000000047,0
mp-1014345,Cr3N4,0.0,0
mp-772526,Li6Mn(BO3)3,1.2196,0
mp-567412,Y5Sn3,0.0,0
mp-23934,PH6NO4,5.3208,0
mp-567948,Rb2Pd(IBr2)2,0.5302,0
mp-555559,Sm3NbSe3O4,1.6340000000000003,0
mp-27845,CaSe2O5,3.4779000000000004,0
mp-510083,Tb2Ti3Si4,0.0,0
mp-28217,Tl2PS3,2.2407,0
mp-9353,Dy5Ni2Sb,0.0,0
mp-542609,AgAsS2,1.5178999999999996,0
mp-20324,Ba2LuCu3O7,0.0,0
mp-770956,Li2TiMn2O5,0.6481000000000003,0
mp-863023,RbZnH2Se2ClO6,4.3283000000000005,0
mp-16320,MnCu2Sb,0.0,0
mp-30357,Sr3Ag2,0.0,0
mp-615754,RbCuPdF5,0.0,0
mp-15095,Ca3Si2SnO9,3.4383999999999997,0
mp-978083,Pr2ZnAg,0.0,0
mp-707377,RbHSO4,4.6737,0
mp-315,PbF2,4.395099999999999,0
mp-974437,Re2C,0.0,0
mp-12834,ThCu6,0.0,0
mp-11595,Yb5Ge3,0.0,0
mp-755298,Li4NbO4,0.0,0
mp-567617,RhN2,0.0,0
mp-1028872,TeMoWSeS2,0.40700000000000003,0
mp-1016155,NaMn4O8,0.3064,0
mp-29896,Y2B3C2,0.0,0
mp-14161,Sr4Al6SO16,4.3934999999999995,0
mp-771386,VBO4,2.6343,0
mp-2142,Te2Os,0.0,0
mp-720515,HN,4.3591999999999995,0
mp-17097,SrIrO3,0.0,0
mp-1044703,Zn(SnO2)2,0.07249999999999979,0
mp-9480,KAlSiO4,4.5009999999999994,0
mp-510311,BaZnPb,0.0,0
mp-1029139,Te4MoW3S4,0.0,0
mp-546621,ErBi2BrO4,1.3505000000000003,0
mp-766521,Li10Cu4S9,0.0,0
mp-4652,MnRh2Pb,0.0,0
mp-504836,YMn4(CuO4)3,0.0,0
mp-1019730,EuZn(BO2)5,0.0,0
mp-677250,K2LuZr(PO4)3,4.3151,0
mp-30837,TbTlPd,0.0,0
mp-1047862,BaMgMnF7,1.6600000000000001,0
mp-1009583,PrAs,0.0,0
mp-643067,Mg3Sn,0.0,0
mp-11465,Mg5Hg3,0.0,0
mp-8582,Eu(PRh)2,0.0,0
mp-1018178,Ba2Zn,0.0,0
mp-704577,Na2Co2(B4O7)3,2.7498999999999993,0
mp-769502,Li4Nb2Fe3O10,2.0898000000000003,0
mp-28358,NbAlCl8,2.0379,0
mp-695836,KSbO3,0.6840999999999999,0
mp-557600,SbC2N(OF3)2,4.6213999999999995,0
mp-677002,SrZr12B2I5Cl23,1.1801,0
mp-865508,U2Ni12As7,0.0,0
mp-677065,TaOF3,2.0799,0
mp-17615,Ta5Ge3,0.0,0
mp-556375,Ba2LaSbO6,3.8413000000000004,0
mp-8695,MnPSe3,0.0,0
mp-976863,NaTm3,0.0,0
mp-673677,La2Th3O9,3.0638000000000005,0
mp-773330,Li2Mn3SnO8,0.0,0
mp-755288,LiFeCuS2,0.0,0
mp-1018121,TiPd2,0.0,0
mp-757594,Os(OF2)2,1.9011999999999998,0
mp-22981,TlIO3,2.7632999999999996,0
mp-30150,GaBH6,4.8941,0
mp-707182,UAsH9O10,2.5299,0
mp-22786,ThNiSn,0.27139999999999986,0
mp-770891,Ti3Cr3(SbO8)2,0.7077999999999998,0
mp-29727,Ta4O,0.0,0
mp-3352,ErSiPd2,0.0,0
mp-5124,MnNi2Sb,0.0,0
mp-9060,RbPdF3,0.0,0
mp-12029,Li2CuP,0.0,0
mp-17105,Hf9V4S,0.0,0
mp-29179,SnCl2,3.1011,0
mp-558607,K3BSb4O13,1.8698000000000001,0
mp-601420,Ce(SiAu2)2,0.0,0
mp-567022,K3Bi5(AsO4)6,3.4166000000000003,0
mp-561294,SrLi2Nb2O7,1.4673,0
mp-568269,TmNiBi,0.15039999999999942,0
mp-31442,Li2InRh,0.0,0
mp-631479,CaHfBe,0.0,0
mp-35220,PHN2,4.619,0
mp-641415,PbWO4,3.0288,0
mp-30413,TbPbAu,0.0,0
mp-99,Er,0.0,0
mp-675146,Pr2PbSe4,1.6586999999999996,0
mp-556965,NpAgSeO5,0.07480000000000064,0
mp-865188,MgH8(ClO6)2,5.3052,0
mp-870,TlN3,1.7591999999999999,0
mp-571499,TaIr,0.0,0
mp-974309,In3Ga,0.0,0
mp-760376,KTiO3,0.0,0
mp-21576,Sc2Te,0.0,0
mp-975726,PrAl4Co,0.0,0
mp-18259,Ho2Cu(B2O5)2,0.6646000000000001,0
mp-6089,BaZn2(PO4)2,4.0373,0
mp-20170,CeCrSe3,0.0,0
mp-760791,Li4Cu5F17,0.10029999999999983,0
mp-976025,Li3Ga,0.0,0
mp-1046492,CaTiPO5,0.12220000000000031,0
mp-1029014,TeMoWSeS2,0.0,0
mp-23412,SbCl4F,1.3761999999999999,0
mp-22289,Mn2CoGe,0.0,0
mp-616514,S(IN)2,1.4269999999999998,0
mp-702,CeHg,0.0,0
mp-982981,Na3Rh,0.0,0
mp-504835,NbNiAs2,0.0,0
mp-654105,RhC2ClO2,1.7196,0
mp-769483,Li11(CoO4)2,0.2894000000000001,0
mp-3405,NaAl11O17,4.4910000000000005,0
mp-2685,HgPd,0.0,0
mp-973689,Ho3Lu,0.0,0
mp-776011,Cr2Fe3Ni(PO4)6,0.0,0
mp-21459,InAgS2,0.5082,0
mp-560835,Pr10Se14O,1.4217999999999997,0
mp-981386,ScH4Pd3,0.0,0
mp-2117,TbN,0.013399999999999856,0
mp-1041628,Ti2ZnO4,0.0,0
mp-757145,SmH2ClO2,4.7223999999999995,0
mp-673637,Ti9S10,0.0,0
mp-780492,Li4VP6(H4O11)2,2.4366,0
mp-4371,Nd(CuO2)2,0.0,0
mp-774314,Ti3MnV2(PO4)6,0.7793999999999999,0
mp-766250,Er2H16S3O20,5.412100000000001,0
mp-1041001,CuSbO4,0.3338000000000001,0
mp-754841,Sc(CuO2)2,0.0,0
mp-672221,Co21(B3W)2,0.0,0
mp-7824,K2ReF6,1.6997,0
mp-541947,Rb2Th(PSe3)3,1.37,0
mp-1049246,LaZnCrWO6,1.8891,0
mp-1018744,LaPbAu,0.0,0
mp-676076,Cu11Sb4S13,0.0,0
mp-723426,NaLiP2(H4O5)2,5.129099999999999,0
mp-21070,Nd(GePt)2,0.0,0
mp-775161,Li2Ti3VO8,0.5531999999999995,0
mp-690490,TiVO4,0.9899999999999998,0
mp-3960,CaUO4,2.1516,0
mp-12017,CeAl4Ge2Au,0.0,0
mp-673636,Sm3S4,0.0,0
mp-766955,K6Na2MnH24(WO6)6,2.1123000000000003,0
mp-752579,Tm2TiO5,3.2759,0
mp-569611,CdI2,2.38,0
mp-774449,Li2Ti3SbO8,0.0,0
mp-18391,Sm2Si2O7,4.7617,0
mp-759377,LiTi2(PO4)3,2.5652999999999997,0
mp-28575,W(S4Cl3)2,0.6466000000000001,0
mp-766168,Ti4SnO10,1.7655000000000003,0
mp-1027070,Te2Mo(WS2)3,0.0,0
mp-752451,Zn(CuO2)2,0.6286999999999998,0
mp-573495,ICl,1.1579,0
mp-676643,Ba2NF,0.4005000000000001,0
mp-5620,TmB2Ru3,0.0,0
mp-29498,WBr2,2.4687,0
mp-16740,TiGePd,0.0,0
mp-766931,Li2Si2NiO6,3.3892,0
mp-772710,Li2TiNb3O8,0.0,0
mp-30782,Sr6Mg23,0.0,0
mp-562182,ZnSiO3,3.4371000000000005,0
mp-560358,Zr2P2O9,4.1039,0
mp-643471,Ba2Y(Cu2O3)2,0.0,0
mp-3457,ErP5O14,5.444100000000001,0
mp-9583,K2ZnF4,4.3016000000000005,0
mp-781634,HfZrO4,3.8823999999999996,0
mp-73,Ti,0.0,0
mp-1017439,SrSiO3,2.3766,0
mp-17213,Cs4SnO4,2.3406000000000002,0
mp-866008,Dy2TlAg,0.0,0
mp-558382,Li2SO4,5.9904,0
mp-8790,Ba2CuO3,0.0,0
mp-752643,NaTi2O4,0.0,0
mp-569450,LiB6C,1.3921999999999999,0
mp-557264,SiO2,5.4327000000000005,0
mp-769560,Li2TiV3O8,0.7328999999999999,0
mp-572597,SbPS4,2.0791,0
mp-780439,LiCr(PO3)4,3.0185,0
mp-29260,Ti(SeO3)2,2.4445,0
mp-561300,H14C3NF5,7.3363,0
mp-695449,Ca2Ga2Bi(B2O7)2,1.6425999999999998,0
mp-1012835,SmCu(WO4)2,1.4499000000000004,0
mp-780798,LiMn2Cr2O8,0.6604000000000001,0
mp-22740,CeCuSi,0.0,0
mp-21656,Ta11(FeSe4)2,0.0,0
mp-24201,H2S,0.0,0
mp-1019774,K2CeAl(SiO3)4,0.27090000000000014,0
mp-8044,V2PC,0.0,0
mp-631529,BSe2Cl,0.0,0
mp-1046096,SrMgTi(PO4)2,0.5297999999999998,0
mp-1037,PrPt5,0.0,0
mp-19766,CeSnPd,0.0,0
mp-625111,H8PtO6,1.6046999999999998,0
mp-1044490,BaZnCr4O8,0.0,0
mp-7830,UO,0.0,0
mp-557132,Os2O3F7,0.5983999999999999,0
mp-18735,Ba2Co(BO2)6,2.1832,0
mp-757826,CsCa(NO2)3,2.6181,0
mp-683668,Mn2InC10BrO10,2.5023,0
mp-754429,CaTm2O4,3.3400999999999996,0
mp-7724,Li2UO4,2.0658000000000003,0
mp-23302,RbI,3.3455,0
mp-1029947,Te2MoWSeS,0.03780000000000028,0
mp-21161,SmSnPt,0.0,0
mp-532524,TiZn2O4,2.04,0
mp-555089,SrLi4Ca(SiO4)2,4.8294999999999995,0
mp-554675,SrTa2Bi2O9,2.0000000000000004,0
mp-27691,K2PtBr6,1.1688,0
mp-573514,CsSb,0.5556000000000001,0
mp-24,C,2.4558999999999997,0
mp-765729,Co2O3F,0.0,0
mp-865843,YbNdZn2,0.0,0
mp-1042578,Zn(WO2)2,0.1429999999999998,0
mp-1025584,W3(SeS2)2,0.7679,0
mp-652663,K2PtS15,1.9164999999999999,0
mp-7547,BaSe2,0.5995000000000001,0
mp-11243,ErAu,0.0,0
mp-16032,Pr2TeO2,1.6555999999999997,0
mp-772437,V3Bi2(PO4)6,0.9702,0
mp-21420,Nd(MnGe)2,0.0,0
mp-779664,AgGeO3,0.0,0
mp-20913,UGeS,0.0,0
mp-510002,K2Sn(HO)6,3.6753,0
mp-865797,LuCo2Sn,0.0,0
mp-29265,Nd2(SO4)3,5.437200000000001,0
mp-19141,K6Co2O7,1.0823,0
mp-20729,LaIn3,0.0,0
mp-568060,Na4Ge2Te5,1.3253,0
mp-571133,NbSe2,0.0,0
mp-27922,GeI2,2.022,0
mp-772581,LiCr6O11,0.0,0
mp-697008,CuH12N2(OF2)2,0.7082,0
mp-760594,LiTi2O4,0.0,0
mp-583193,Cs3PSe4,1.8309000000000002,0
mp-849080,VS2,0.0,0
mp-973884,Ni3Hg,0.0,0
mp-703527,H2CN2,4.8561,0
mp-552547,SrBiIO2,2.8642999999999996,0
mp-697126,Ca4(H4Rh)3,0.0,0
mp-762454,LiCrO2,1.7688999999999995,0
mp-975386,RbDyO3,0.0,0
mp-776293,Na4Sb2C4SO16,0.47319999999999984,0
mp-1001021,Y2ZnSe4,0.23950000000000005,0
mp-761971,LiLaNb4O12,1.3084,0
mp-1029293,CsVN2,0.00010000000000021103,0
mp-763256,LiCoSiO4,1.5904,0
mp-76,Sr,0.0,0
mp-770387,LiMnAlO4,1.6148999999999996,0
mp-866850,CaSnS3,0.42469999999999963,0
mp-505315,Ba2LaCu3O8,0.0,0
mp-66,C,4.1128,0
mp-973826,LiHoSn2,0.0,0
mp-23392,K4CdCl6,3.9837,0
mp-557004,SiO2,5.5806000000000004,0
mp-759754,Ti11O14,0.0,0
mp-15843,Ge9Pd25,0.0,0
mp-21319,Ce3TlC,0.0,0
mp-1025986,Te2Mo3S4,0.0,0
mp-752674,BaY3F11,7.0887,0
mp-505216,Gd2Ru2O7,0.0,0
mp-21559,Zr2Te,0.0,0
mp-6246,Ca2CO3F2,5.14,0
mp-10601,Y3GaC,0.0,0
mp-707985,K3Na3TeP6(HO4)6,3.1763,0
mp-865944,ThSnRu2,0.0,0
mp-558340,Nd5As2ClO10,3.2958000000000003,0
mp-556233,KAs4ClO6,3.0465,0
mp-977360,AcF3,7.3459,0
mp-972957,ScTiRu2,0.0,0
mp-557979,MnTl2As2S5,0.6165999999999996,0
mp-554906,Zn2BiPO6,2.8034999999999997,0
mp-631299,NbCrCo,0.0,0
mp-4007,Nd(SiNi)2,0.0,0
mp-641,As2S3,2.0877999999999997,0
mp-560328,Ag15P4S16Cl3,1.2258,0
mp-22855,HgCl2,2.8686,0
mp-759968,Na2BiO3,0.0,0
mp-23231,AgBr,0.7306000000000001,0
mp-531523,LiGa5O8,2.2544000000000004,0
mp-10891,MnAlPd2,0.0,0
mp-18708,Fe3P,0.0,0
mp-9937,USbSe,0.0,0
mp-865140,MnGaRu2,0.0,0
mp-1007961,CrInCu2,0.0,0
mp-18800,Cr2SiO4,1.9961000000000002,0
mp-3769,ErBRh3,0.0,0
mp-16992,NaAg3S2,0.9283999999999999,0
mp-27335,NaAlSi,0.0,0
mp-1047119,Sr2Y2Co2O7,0.19070000000000054,0
mp-530714,Ba14AlSb11,0.5247999999999999,0
mp-22457,K3Na(SO4)2,5.2921000000000005,0
mp-17183,Na2BeSiO4,4.5446,0
mp-569832,Nd(Al4Co)2,0.0,0
mp-555844,MnSbS2Cl,0.8681999999999999,0
mp-1028669,TeW2SeS2,0.0,0
mp-522,CuAu,0.0,0
mp-570539,Rb3As7,1.5282,0
mp-32736,Er2Se3,1.6222000000000003,0
mp-776445,Li4Ti2Cu3Sb3O16,0.0,0
mp-770192,Li2CrO3,0.4491999999999998,0
mp-867912,Ba2SnHg,0.049799999999999844,0
mp-780569,Ba8Nb7O24,0.0,0
mp-21246,Ba2Pb,0.031400000000000095,0
mp-6941,Y2Si3N4O3,2.7943,0
mp-558514,RbZrCdF7,5.1017,0
mp-12846,YbGaGe,0.0,0
mp-705355,Li2Mn(PO3)5,1.5914000000000001,0
mp-998196,RbCuBr3,0.0,0
mp-570961,CdBiSe2I,1.2705000000000002,0
mp-780229,Na6Bi2B4PO16,0.0,0
mp-32813,Ti9O10,0.0,0
mp-12615,TbBe13,0.0,0
mp-662572,Ta3In2Cl9,1.2974,0
mp-10266,ZnFe3C,0.0,0
mp-638650,Pr7FeI12,0.0,0
mp-685608,K2UF6,0.34499999999999975,0
mp-1044552,Al4Co13Si2(SbO14)2,1.8638000000000003,0
mp-977556,MgScCd2,0.0,0
mp-1018781,Li3SmSb2,0.0,0
mp-16610,Ge3Os2,0.7418000000000005,0
mp-976598,LiHf2Ir,0.0,0
mp-557523,VS2,0.0,0
mp-978255,MgTi3,0.0,0
mp-989562,Cs2LiTlF6,3.4749,0
mp-775220,V(GeO3)2,1.5087,0
mp-7120,Sm(AlSi)2,0.0,0
mp-1018649,BC5,0.0,0
mp-1019077,ReN2,0.0,0
mp-672984,LiCu(PO3)4,0.0,0
mp-631394,CaZrPd,0.0,0
mp-10784,RbErSe2,1.9815999999999998,0
mp-697038,Ba2H6Ru,1.8699000000000001,0
mp-18191,Tl2TeO6,0.0,0
mp-9457,Ca3ReO6,0.0,0
mp-756402,YHO2,4.6373,0
mp-764052,VOF,0.7528999999999999,0
mp-22664,HoRh3C,0.0,0
mp-3734,NdSi2Ni,0.0,0
mp-12463,Ni(TePd)2,0.0,0
mp-556712,Ga2BiS4,2.5248,0
mp-558277,Ti3(BiO3)4,2.2583,0
mp-28252,Ba5(GaS4)2,2.5327,0
mp-770647,Li2SiSnCO7,3.2725999999999997,0
mp-705526,H16AuC6S2N4ClO4,3.3875,0
mp-27800,K4Ge23,0.0,0
mp-2627,DyAs,0.0,0
mp-6178,Cs2KTiF6,0.0,0
mp-1030154,Te4Mo3W(SeS)2,0.0,0
mp-15736,Sr3AlO4F,4.0449,0
mp-973471,KReO3,0.0,0
mp-5058,FeAgS2,0.0,0
mp-1027652,TeMoWS3,0.0,0
mp-1048551,YNi3Se2ClO8,1.8072,0
mp-11290,CaSn3,0.0,0
mp-1041498,AlMo3F15,1.8206,0
mp-540861,KNa3Al4(SiO4)4,3.1136999999999997,0
mp-763100,LiMnF4,2.4813,0
mp-669353,Cs2TeO4,2.8284,0
mp-3669,Mn(NbS2)4,0.0,0
mp-33738,TiNiO6,0.0,0
mp-29833,Bi2(SeO3)3,3.3926999999999996,0
mp-15809,Cr2B,0.0,0
mp-9306,Sr2ZnN2,0.7361,0
mp-1018676,CeSbAu,0.0,0
mp-697878,KCo2H3(SeO5)2,0.7221000000000001,0
mp-7541,SnP3,0.0,0
mp-555279,BSBr,3.6239,0
mp-543046,CsScP2(HO4)2,4.8328999999999995,0
mp-773572,LiCo6O7,0.0,0
mp-976343,HoErPd2,0.0,0
mp-1043585,CaBi2(PO5)2,0.0,0
mp-1049228,HoMg(SbO3)2,0.0,0
mp-552488,LaCuSeO,1.5467999999999993,0
mp-1040864,Ba2Mo2F11,1.9493,0
mp-754173,Sm2Cu2O5,0.0,0
mp-698074,Ca2H2S2O9,5.7341,0
mp-1190,ZnSe,1.1663,0
mp-8829,CrGaSe3,0.0,0
mp-567178,PbI2,2.3872,0
mp-503,ThS,0.0,0
mp-19401,CrPO4,2.4649,0
mp-1047237,Mg(WO2)2,0.9393000000000002,0
mp-755287,Ca3CdO4,2.5211,0
mp-34770,Sr(GdSe2)2,0.9667000000000003,0
mp-6602,SrCu2(BO3)2,0.0,0
mp-3515,Y(CoB)2,0.0,0
mp-568282,TlH12C4Br4N5,2.0259,0
mp-5884,TmPO4,5.939399999999999,0
mp-7166,Pr3TlC,0.0,0
mp-22898,KI,3.8512999999999997,0
mp-703295,SrH2I2O,3.6429,0
mp-19724,Cu3Ge,0.0,0
mp-771955,Sr3LaBr9,2.9573,0
mp-541852,Co21(ReB3)2,0.0,0
mp-1018080,CrCo2Bi,0.0,0
mp-926,PuP,0.0,0
mp-5928,Al2CdS4,2.7262999999999997,0
mp-974822,Rb3P,0.42010000000000014,0
mp-31112,Tb3GaO6,3.6053999999999995,0
mp-568638,Y3CuSiSe7,1.5118,0
mp-20759,SrMnSn,0.0,0
mp-764845,LiVOF3,1.8467,0
mp-569147,UP2,0.0,0
mp-4043,NbCu3Se4,1.3604000000000003,0
mp-16747,LuAgPb,0.0,0
mp-2814,Yb2O3,0.0,0
mp-3668,CdGeP2,0.6455000000000002,0
mp-2514,Mg3P2,1.6067999999999998,0
mp-1023900,SiS,0.4776,0
mp-1929,NdB6,0.0,0
mp-9266,Na6FeS4,0.0,0
mp-763268,MnOF,0.0,0
mp-780893,Na6V2O7,0.9095999999999997,0
mp-866030,EuSiO3,0.0,0
mp-655057,LiAlSiH2O5,3.0209,0
mp-1013526,VS2,0.0,0
mp-559062,KP(OF)2,5.2364999999999995,0
mp-865200,MnGa2Tc,0.0,0
mp-641509,In9Ni13,0.0,0
mp-844,Ca3N2,1.1111,0
mp-721713,H12Pd(I2N)4,1.2455999999999998,0
mp-778633,LiMnF3,3.5293,0
mp-541495,KY(PO3)4,5.3516,0
mp-559998,Cs(OsO3)2,0.0,0
mp-1260,SrPd5,0.0,0
mp-556985,SiO2,5.6098,0
mp-1025838,Te2Mo2WS4,0.07819999999999983,0
mp-20152,In(MoSe)3,0.0,0
mp-562441,Cs3AlO3,2.2692000000000005,0
mp-11445,Y(TiGa2)2,0.0,0
mp-18726,CrNiO4,1.924,0
mp-778149,Li6Ti3P8O29,2.3633,0
mp-15492,DyTa7O19,3.2222999999999997,0
mp-773494,CsH5S2(NO3)2,4.9117,0
mp-37836,Al(HO)3,4.9076,0
mp-1048241,AlSb3Se2ClO8,0.0,0
mp-605860,Ba2LiN,0.0,0
mp-639756,DyIn3Cu2,0.0,0
mp-510654,Cu2PHO5,0.0,0
mp-13898,Cs2NaInF6,5.304,0
mp-772073,Li2Nb4O11,2.5441,0
mp-510595,Er5CoSb2,0.0,0
mp-973623,GeBi3,0.0,0
mp-1043309,MgGe2WO6,1.5448,0
mp-973977,HoSnO3,0.0,0
mp-19727,PbCN2,1.7030999999999996,0
mp-562854,CsNb2BiO7,2.4814000000000003,0
mp-985592,Li6PS5Cl,2.1375,0
mp-16872,RbLi2Ga2(BO3)3,3.6654999999999998,0
mp-32,Ge,0.0,0
mp-864798,HfZnIr2,0.0,0
mp-637255,Ti2Sn3,0.0,0
mp-757745,Ba4In2O7,1.3670999999999998,0
mp-1971,HoCu,0.0,0
mp-752407,Dy2Ge2O7,3.8173999999999997,0
mp-555014,Rb2MnF5,1.2946,0
mp-770092,HfP2O7,5.2942,0
mp-709098,H2CS3,2.0181,0
mp-570953,HoGa3,0.0,0
mp-644318,NaV3H6(SO7)2,2.0629999999999997,0
mp-555128,H8C3O2,5.641299999999999,0
mp-851,ErPd,0.0,0
mp-559937,UTe3Pb2O11,1.7889000000000004,0
mp-1006146,Eu(MgBi)2,0.0,0
mp-640341,Mo3S7Cl4,1.6678,0
mp-557661,Sb4PdC4(O2F11)2,3.2589,0
mp-667386,Na3Sr4Al5F26,6.915900000000001,0
mp-17867,Mn2NbP12,0.0,0
mp-771570,Sr2CaI6,3.4311999999999996,0
mp-766123,Ce4ThO10,1.8415999999999997,0
mp-695945,Na2H4RuC5(N2O)3,2.3134,0
mp-555117,Cs2Bi4O7,2.6731,0
mp-600041,SiO2,5.465199999999999,0
mp-722912,Hf3Zn3C,0.0,0
mp-20015,As2PbO6,2.1358,0
mp-767631,Li3VF6,2.5271,0
mp-775864,NaCo11O17,0.0,0
mp-756933,TaTlO3,0.44579999999999975,0
mp-694868,Rb2ZrFe(PO4)3,2.4218,0
mp-5032,La3Ru3O11,0.0,0
mp-13097,NaZnAs,0.3635999999999999,0
mp-11474,TlHg3,0.0,0
mp-28555,RbSF5,4.6838,0
mp-997022,AgAsO2,2.3735,0
mp-552169,AgClO2,0.8895000000000001,0
mp-1374,Zr5Re24,0.0,0
mp-775027,Li2Mn3CoO8,0.6341000000000001,0
mp-761589,NbCo3O8,0.0,0
mp-7293,HgPSe3,1.2004,0
mp-11520,YNiSb,0.2962000000000007,0
mp-755205,Zr2N2O,1.6914999999999996,0
mp-1825,Cu2Sb,0.0,0
mp-770649,Li5NbO5,2.9243,0
mp-41219,BaLiPrTeO6,3.1399,0
mp-582406,Gd2(Zn2Ge)3,0.0,0
mp-9958,Ti2GeC,0.0,0
mp-10145,YbB2,0.0,0
mp-680169,Na21S7Cl(O14F3)2,4.905,0
mp-972868,SiAu3,0.0,0
mp-542931,Bi2B8O15,4.3762,0
mp-4472,BMo2C,0.0,0
mp-1009640,PrN,0.0,0
mp-13792,KTaP4O13,3.6681,0
mp-569704,Tl2Ni(CN)4,2.2822,0
mp-29752,NiGePt2,0.0,0
mp-1023954,MoWS4,1.3317,0
mp-765689,Li4Co3(OF3)2,2.5015,0
mp-1029750,Sr3RuN3,0.0,0
mp-972112,Sr2MgUO6,2.1157,0
mp-779340,LiV4O5F7,0.5956000000000001,0
mp-976322,Li3Pt,0.0,0
mp-690725,TlCuHSO5,0.3320000000000003,0
mp-699390,Pr4Si4N7ClO3,3.0945,0
mp-246,TiF3,0.0,0
mp-485,ZrNi3,0.0,0
mp-18129,La2ZnGa2S6O,2.5862000000000003,0
mp-6018,Ba3NdRu2O9,0.0,0
mp-560468,Pr3Si2S8Br,2.7496,0
mp-510438,InPt,0.0,0
mp-27450,KCuCl3,0.0022999999999999687,0
mp-19166,Sr3NiPtO6,2.4915999999999996,0
mp-690581,Li6Mo2O7,1.0872000000000002,0
mp-644015,KVHSe2O7,2.2311,0
mp-774315,Li10Ti3Co3(NiO8)2,0.8922000000000003,0
mp-1048906,Zn(MoO2)2,0.6688999999999998,0
mp-3768,KN3O4,2.8383000000000003,0
mp-1029403,RbGe2N3,1.0678,0
mp-556974,BaB4O7,6.4658,0
mp-1018849,OsN,0.0,0
mp-569698,UAl2Pd5,0.0,0
mp-19932,In4Se3,0.16659999999999986,0
mp-20150,LiCa2Si3,0.0,0
mp-12185,LiCu(PO3)3,0.6669,0
mp-580886,ZrIN,0.7367999999999997,0
mp-1046716,VZnSiO5,1.7752,0
mp-10708,PrRh3C,0.0,0
mp-999439,Nb3Cr,0.0,0
mp-1819,SbO2,2.0220000000000002,0
mp-696746,B4C,1.5066000000000006,0
mp-14049,Ba3Al2(SiO4)3,3.2933,0
mp-27506,K3W2Cl9,1.3375000000000001,0
mp-30884,YZn3,0.0,0
mp-984769,CaTl2Cd,0.0,0
mp-863031,KNaGdTaO5,2.7073,0
mp-998306,CsPdBr3,0.0,0
mp-30714,Tm2Zn17,0.0,0
mp-541332,Sr2LaGaCu2O7,0.0,0
mp-27404,As3(HO2)5,3.0438,0
mp-11904,LiSm2IrO6,0.0,0
mp-610190,Zr9(In2Co)7,0.0,0
mp-9854,YP5,0.13399999999999945,0
mp-644729,AgN3O4,1.9626,0
mp-865431,YbZnAu2,0.0,0
mp-8772,ScB12,0.0,0
mp-21298,NpSi2,0.0,0
mp-773180,Li4Mn3Sn5O16,0.0048000000000003595,0
mp-9988,Nb2CS,0.0,0
mp-5796,Ho(MnSi)2,0.0,0
mp-760678,Sb2H4AuF16,0.8936000000000001,0
mp-972741,Si3P,0.0,0
mp-850947,Li3Mn5Cr2O12,0.05410000000000004,0
mp-29473,LiIO4,2.0725,0
mp-775218,MnNb3(PO4)6,0.0,0
mp-30234,Cs2WCl6,0.0,0
mp-623646,TiNiSn,0.0,0
mp-777588,Li2FeF4,3.4779999999999998,0
mp-21673,Ge2Pt3,0.0,0
mp-569518,U2Zn17,0.0,0
mp-2760,Nb6C5,0.0,0
mp-15888,Ba2YIrO6,0.0,0
mp-676534,Rb8C4O7,0.03869999999999996,0
mp-3884,Ho2Sn2O7,2.6917,0
mp-1029257,Zn2ReN3,0.0,0
mp-21941,Th(Fe2P)2,0.0,0
mp-781060,Mn2OF3,0.0,0
mp-12403,LiBF4,8.246,0
mp-770643,GeWO4,3.9396999999999998,0
mp-762649,Na3LiMn5O9,0.5640000000000001,0
mp-5869,Ca2CuO3,0.0,0
mp-1045414,Y(TiS2)2,0.0,0
mp-866169,KTl2Bi,0.0,0
mp-675015,Yb6U3O17,0.0,0
mp-555903,Al(IO3)3,3.3350000000000004,0
mp-1043548,MgFe(Si2O5)2,3.771,0
mp-19458,BaV10O15,0.8319000000000001,0
mp-31493,RbGa3,0.14719999999999978,0
mp-1029396,SrHfN2,1.5390000000000001,0
mp-556139,BaZr(PO4)2,4.156000000000001,0
mp-865355,Zn3Pt,0.0,0
mp-698576,Ti3Fe5O12,1.2325,0
mp-21878,CeCo4B,0.0,0
mp-1030212,Te2MoWSeS,0.08820000000000006,0
mp-652326,Fe3C9S2O9,1.9239,0
mp-22804,Na3In2(AsO4)3,2.2536,0
mp-14015,HoMn12,0.0,0
mp-558415,K3CuP2S7,2.2345,0
mp-10615,BaLiP,0.6981999999999999,0
mp-771889,Sr5La2Cl16,4.1002,0
mp-770426,Ho(ClO4)3,5.0172,0
mp-696130,Li10Ge(PO6)2,4.4506,0
mp-541108,Cd2Si(P2O7)2,4.0752,0
mp-13349,KUCuS3,0.0,0
mp-30521,ThCN,1.5202,0
mp-7332,NdP5,0.0,0