mp_id,formula,band_gap,fidelity
mp-769319,LiNb(OF)2,3.1688,0
mp-1048335,VP2O7,1.3181000000000003,0
mp-7203,Ce3Sn13Rh4,0.0,0
mp-650503,Rb3V2Br9,0.0,0
mp-758332,CaGd4O7,2.8514999999999997,0
mp-2222,MnHg,0.0,0
mp-696736,RbBe2F5,7.0859000000000005,0
mp-6046,Na4UC3O11,2.1523000000000003,0
mp-554554,K9Bi(PS4)4,2.0563000000000002,0
mp-1042006,CaMnP2O7,3.6233000000000004,0
mp-7281,Dy3Ni2,0.0,0
mp-1046177,Sr2YCu3O7,0.0,0
mp-561173,Y3CuSiS7,1.7418999999999993,0
mp-9359,ZnSi(AgO2)2,0.6068,0
mp-28620,Zr3SO9,3.8054999999999994,0
mp-776410,Mg(NO3)2,3.5429999999999997,0
mp-614895,Pu3In,0.0,0
mp-28376,CuAuF5,0.0,0
mp-11594,PrB2Ir3,0.0,0
mp-771058,Li4Cr3CoO8,0.5942999999999996,0
mp-767395,Li3CuSbO5,0.4336000000000002,0
mp-762011,LiCrCoO4,0.5632000000000001,0
mp-756998,CdH2(SO4)2,4.189,0
mp-554472,PNClF,5.0565,0
mp-5158,KNO3,2.9158,0
mp-753148,Li2Cu7F16,0.0,0
mp-20809,Cr4InCuSe8,0.0,0
mp-721158,Mg2P2H12O13,5.0738,0
mp-605878,La4MgRu,0.0,0
mp-41918,SrLaNbZnO6,2.3729999999999993,0
mp-2513,As2Pt,0.0801999999999996,0
mp-769544,MgCr3Se2(SO6)4,0.1421,0
mp-676562,Yb3Sm3S8,0.0,0
mp-10678,AuSe,0.0,0
mp-978494,SiSn3,0.0,0
mp-706676,KPH3NO3,4.3165,0
mp-15704,BeSiN2,3.562099999999999,0
mp-1046309,Mg4Sn5(TeO6)3,1.4229000000000003,0
mp-558842,Sm7BP2O17,4.788600000000001,0
mp-864999,Dy2IrRh,0.0,0
mp-733848,CdRe2H8C2(N2O5)2,2.7675,0
mp-851120,KNa2Li3Zr2(Si2O5)6,0.0,0
mp-973065,LaP3,0.0,0
mp-995206,H2CO,2.4383,0
mp-13683,HfGe2,0.0,0
mp-672313,Sc6Pb5,0.0,0
mp-677013,Na3Pb2S3ClO12,4.148300000000001,0
mp-865367,Tm2NiRu,0.0,0
mp-16587,Dy4Si2S3O7,2.6106,0
mp-150,Fe,0.0,0
mp-631304,KNb2Se,0.0,0
mp-561599,Ba3Nb2CoO9,1.5992000000000002,0
mp-675286,Ca3UN4,1.3944999999999999,0
mp-675325,Al(Ag3S2)3,0.7057,0
mp-4131,Sc(CoSi)2,0.0,0
mp-567722,Ca7NbSi2N9,1.9855,0
mp-11696,As3W2,0.0,0
mp-775721,Li2FeCo3O8,0.0,0
mp-604325,K,0.0,0
mp-849377,Ni6OF11,0.8937,0
mp-764542,Li5Fe8(BO3)8,1.2874999999999999,0
mp-864662,HoCl3,3.7011,0
mp-1029770,BaCrN2,0.0,0
mp-776118,Mn3FeSn2(PO4)6,0.0,0
mp-5409,Y4Al2O9,4.3268,0
mp-647556,Tl8(CdN14)3,2.6689,0
mp-557451,CsReOF6,2.9741,0
mp-1029492,Li3CoN2,0.0,0
mp-721463,K2P2H2O7,4.7606,0
mp-1028467,MoW3(Se3S)2,0.8915000000000002,0
mp-14245,Dy2Si5Rh3,0.0,0
mp-11903,LiEu2IrO6,0.0,0
mp-4703,Th(Al2Fe)4,0.0,0
mp-1047811,Be3Si3(MoO6)2,3.8074000000000003,0
mp-756389,Lu2TeO6,2.3933,0
mp-28919,Hf3Te2,0.0,0
mp-17850,K3NaTh2O6,3.6676,0
mp-28891,Li7TaO6,4.373399999999999,0
mp-760109,Bi2(SO4)3,4.2334000000000005,0
mp-30883,V4Zn5,0.0,0
mp-761711,Li4V3SiO10,1.4529,0
mp-2019,LaRu2,0.0,0
mp-19511,Li5FeO4,3.0546,0
mp-983908,Er2ZnAu,0.0,0
mp-7910,Al2HgTe4,1.1108000000000002,0
mp-29419,Hf(Te2Cl3)2,1.2626,0
mp-626127,H7NO6,1.6933,0
mp-21612,Mg6Cu16Si7,0.0,0
mp-979614,Sm3Er,0.0,0
mp-677482,LaAl2Si5N9O,2.0951999999999993,0
mp-861735,AcMgTl2,0.0,0
mp-1047131,BaCa(BiO2)4,0.9921999999999995,0
mp-11495,LuRu,0.0,0
mp-8578,Sc3InC,0.0,0
mp-626751,Mo3(HO5)2,0.0,0
mp-684956,Tl2O3,0.1854,0
mp-14760,LuAl3(PbO4)2,2.9847999999999995,0
mp-21891,PrSi2Mo2C,0.0,0
mp-631557,Sn2BSe,0.0,0
mp-677233,NaAl3Tl2(SiO4)3,2.9332000000000003,0
mp-768243,Tm2TiO5,3.1693999999999996,0
mp-570008,Sr3BiN,0.25890000000000013,0
mp-1048389,CaMnP2O7,4.161999999999999,0
mp-763767,Fe5P3O13,1.4787,0
mp-973682,Fe3B,0.0,0
mp-7596,NbNO,1.5539999999999998,0
mp-753846,Mg(GaO2)2,2.3585,0
mp-8898,TaAlO4,3.2754,0
mp-561218,KP2Au5S8,1.4084,0
mp-643385,SrHIO,3.7424,0
mp-559145,AlPO4,5.662,0
mp-1578,V3Rh,0.0,0
mp-573755,CsTeAu,1.2960999999999998,0
mp-996970,AgBiO2,1.2407,0
mp-643123,K5Ag(NO)2,0.04390000000000001,0
mp-752396,Ca2HfO4,0.0,0
mp-1019563,Ca2SiO4,3.3021,0
mp-760891,Cu3OF5,0.0,0
mp-21352,NaIn2Au,0.0,0
mp-2574,ZrO2,3.8841999999999994,0
mp-685108,Cu9S5,0.0,0
mp-14048,Sr3Al2(SiO4)3,4.4318,0
mp-984767,DyHoIn2,0.0,0
mp-504852,Cs2Na3InO4,2.0661,0
mp-754798,Bi2SeO6,0.6426999999999996,0
mp-1044869,SbO2,1.8264999999999998,0
mp-636476,SrCu3(RuO3)4,0.0,0
mp-556169,YSeO3F,4.2667,0
mp-14555,LaCd(BO2)5,4.3762,0
mp-21045,DyAgGe,0.0,0
mp-15955,Y(BC)2,0.0,0
mp-6748,Cs2Ti(Si2O5)3,3.5085,0
mp-559594,LaGaSe2O,1.5984999999999996,0
mp-769457,Li4Ti4Cr(Fe2O9)2,0.6461999999999999,0
mp-998987,Ti3Ge,0.0,0
mp-1049223,LaZnCrSbO6,0.0,0
mp-569006,Sr(AsRh)2,0.0,0
mp-554676,H3CS,3.7157999999999998,0
mp-676074,Na2ThF6,6.5873,0
mp-973796,PmHo,0.0,0
mp-646,PrCd,0.0,0
mp-757206,BaTi6O12,0.0,0
mp-720407,KH(IO3)2,3.3546000000000005,0
mp-759821,Sb3O2F5,3.4665,0
mp-721851,BHO2,7.0739,0
mp-10196,Ta2N,0.0,0
mp-978852,SrGaSnH,0.4150999999999998,0
mp-774418,TiV3(PO4)6,0.8519,0
mp-1040986,Mg(FeO2)2,1.4259000000000004,0
mp-734561,Rb3P3(HO3)4,1.084,0
mp-694945,Ba3La7Mn2(Co4O15)2,0.0,0
mp-975589,Ho6Bi2Rh,0.0,0
mp-625856,TeHO3,2.0451,0
mp-21474,Eu(MnP)2,0.0,0
mp-23372,Sn2Bi2O7,2.7096,0
mp-15319,Lu2C3,0.0,0
mp-675541,K2Sn5Cl12,2.4961,0
mp-1043770,MgTiCu(PO4)3,0.0,0
mp-17381,Y3Ge4,0.0,0
mp-542944,Cs2CuH12(SO7)2,0.6475000000000001,0
mp-8683,K5As2Au,0.34650000000000003,0
mp-20001,SrSnPt,0.0,0
mp-975173,RbYO3,0.0,0
mp-5200,PrBRh3,0.0,0
mp-695805,Li2FeP2O7,4.2488,0
mp-567729,La7C3I10,0.0,0
mp-559463,RbMgAs(H6O5)2,4.2177,0
mp-768776,LiBiB2O5,3.5923000000000003,0
mp-697144,RbH2N,1.8985,0
mp-1041009,MgFe2P2O9,2.006,0
mp-971700,ZnAuO3,0.0,0
mp-1046238,Mg(SbO2)4,2.132,0
mp-1008501,Be,0.0,0
mp-13007,PrCrGe3,0.0,0
mp-779000,Rb4SbO4,0.0,0
mp-22575,Sc3As2,0.0,0
mp-29276,Cd2P6O17,4.2535,0
mp-767432,Sr16V8O31,0.43359999999999976,0
mp-555813,H12RhC8NO6,1.0661999999999998,0
mp-24361,CaP2(HO2)4,5.649699999999999,0
mp-581868,NaY(IO3)4,3.3072000000000004,0
mp-560642,Na3SbP2O9,2.6288,0
mp-767539,Li6SbS2,1.0837000000000003,0
mp-1008866,NaAgO,0.0,0
mp-675682,Al11NO15,4.052200000000001,0
mp-680850,Ti8S3,0.0,0
mp-774951,Li2MnCr3O8,0.6859999999999999,0
mp-26157,LiSb(PO3)4,4.462999999999999,0
mp-631429,ZrCrFe,0.0,0
mp-143,Tm,0.0,0
mp-706268,BaAlSi5N7O2,1.5107,0
mp-10709,ReC,0.0,0
mp-13350,RbUAgS3,0.0,0
mp-1048204,Ba2Bi3O7,0.0,0
mp-863265,K2Mn(PSe3)2,0.7643,0
mp-567243,Tm(CrSi)2,0.0,0
mp-553880,ZnS,2.031,0
mp-617442,RbTa(CuTe2)2,1.1980000000000004,0
mp-684853,Ba2Yb2Al4Si3(N5O2)2,0.28770000000000007,0
mp-999002,TiFe2As,0.0,0
mp-30997,ZrTlF5,4.8447,0
mp-10656,TmTe,0.0,0
mp-555214,ZnS,1.5972999999999997,0
mp-626470,Al(HO)3,5.0046,0
mp-765970,Ti3Sn7O20,1.7439,0
mp-706937,B9H11,3.319,0
mp-685863,Li4SiO4,4.6647,0
mp-12170,La2SnS5,0.0,0
mp-6498,CoCu2GeS4,0.0,0
mp-1015567,CrN2,0.27060000000000006,0
mp-16961,Na6Si2Se7,2.1551,0
mp-780230,Hf2N2O,1.9989,0
mp-571097,SiH17C11N,3.9636,0
mp-8062,SiC,1.3704,0
mp-20860,Mn3SnC,0.0,0
mp-675734,Li7B18O,0.0,0
mp-676249,SrU2O6,0.0,0
mp-13118,CeZn3Pd2,0.0,0
mp-764519,LiFe2(BO3)2,1.5639,0
mp-1019539,BaB2S3O13,6.181,0
mp-29519,KAuI4,0.3003,0
mp-540146,MnPO4,1.0778,0
mp-572510,K3AgO2,1.8095999999999999,0
mp-31436,TbGe2Pd,0.0,0
mp-555851,Na2Cd3(P2O7)2,3.0513000000000003,0
mp-975794,Li3Be,0.0,0
mp-757788,LiNb(PO3)4,0.8601000000000001,0
mp-972658,SmBi3,0.0,0
mp-10814,SrLiBO3,4.3664,0
mp-626112,H7NO6,3.3895999999999997,0
mp-1046091,Mg2Ta2VO8,1.6662,0
mp-1030682,Te3MoWSe,0.01750000000000007,0
mp-556660,CO,5.8258,0
mp-13986,Li2PtF6,2.4927,0
mp-975537,NdInRh2,0.0,0
mp-559182,P2IrClF6,0.8571,0
mp-850979,V3(O2F)2,1.0171000000000001,0
mp-17693,SrCdP2O7,3.7032,0
mp-989516,Cs2ICl6F,1.1260999999999999,0
mp-567204,Ho8Mg12Zn61,0.0,0
mp-850363,Ti2Co3Te3O16,0.34540000000000015,0
mp-3951,Ti2CuS4,0.0,0
mp-22876,CsI3,1.8986,0
mp-34376,Tb2CdS4,1.8687999999999998,0
mp-560768,NaSr4(BO3)3,3.9798,0
mp-756467,TiCu(PO4)2,0.0,0
mp-758243,TiNb2O7,1.3475000000000001,0
mp-680388,ZnCuTeCl2O3,9.999999999998899e-05,0
mp-28874,Hg2P3Br,0.9380999999999999,0
mp-693655,Ba4Sm7Si12BN27,0.0,0
mp-556036,Ba3Al2Cu2F16,0.5436000000000001,0
mp-1307,LiGa,0.0,0
mp-978506,SmSiO3,0.0,0
mp-30012,BiKrF7,2.3578,0
mp-723031,H4Os3C10O9,3.2289000000000003,0
mp-29311,S3N2Cl,1.2724,0
mp-775205,Li3MnP2HO8,4.1739999999999995,0
mp-772082,CaLaI5,2.1073000000000004,0
mp-19220,CaSi2NiO6,4.4392,0
mp-29475,BH2N,5.2948,0
mp-41092,AsSClOF8,3.9969,0
mp-683928,K5CeCu2(NO2)12,0.0,0
mp-1019600,CeZr3O8,1.9003999999999999,0
mp-24332,H2C(NO)2,2.2824,0
mp-974432,Re3Sn,0.0,0
mp-569581,Bi2Pt,0.0,0
mp-771750,Sr(IO3)2,3.7390000000000003,0
mp-849472,Li5Co7O3F13,1.924,0
mp-2210,ZrCu,0.0,0
mp-779511,Ba2MgO3,3.5116000000000005,0
mp-18008,Ba2HgS3,1.3556,0
mp-1047015,Zn3Si4(MoO7)2,0.8881999999999999,0
mp-6604,Na2LiAlF6,7.2073,0
mp-695946,NiH16C4S4(N4Cl)2,0.5148000000000001,0
mp-555155,KNa2Y(Si2O5)3,4.8143,0
mp-561291,SiO2,5.265300000000001,0
mp-17085,Rb2Zr3OF12,5.3336,0
mp-4226,LiCrS2,0.6463000000000001,0
mp-763551,Mn2VO4,0.0,0
mp-558198,Na2Cd(SO4)2,3.8287000000000004,0
mp-7999,Y2Si2O7,4.927899999999999,0
mp-983604,Er3As,0.0,0
mp-971950,Zn3Sn,0.0,0
mp-762111,Li2CuPO4,2.0687,0
mp-6879,Ba2CaCu2HgO6,0.0,0
mp-697666,H6S(NO2)2,5.2248,0
mp-721314,NaH2SO4,5.3052,0
mp-2049,ZrMo2,0.0,0
mp-1044021,LaZnCrFeO6,0.7851000000000008,0
mp-769222,Dy2Pb2O7,0.9474,0
mp-22426,ScSiNi,0.0,0
mp-23052,ZrIN,1.2218,0
mp-7591,GeAs,0.0,0
mp-23434,Al2CuCl8,0.5592999999999999,0
mp-600037,SiO2,5.4426,0
mp-864734,HfInPd2,0.0,0
mp-696983,KGaH4,4.9361999999999995,0
mp-568584,N2,6.9553,0
mp-17888,K2Zr3OF12,5.4252,0
mp-685120,Al2Se3,1.1228000000000002,0
mp-777475,Li3FeF6,4.0089999999999995,0
mp-761716,MnFe2O3,0.0,0
mp-769265,Na6Bi2As(CO4)4,0.0,0
mp-30807,ZrNi4Sn,0.0,0
mp-504876,Hg19(As5Br9)2,1.0826,0
mp-1748,NdS,0.0,0
mp-557833,Ti(Ag4S3)2,0.6463000000000001,0
mp-569766,TeI,0.7162999999999999,0
mp-4189,Dy6FeSb2,0.0,0
mp-684698,Sn2As2H22C7(ClO2)2,0.32099999999999995,0
mp-7427,Ba(ZnAs)2,0.29879999999999995,0
mp-1048115,BaYCu4O7,0.0,0
mp-675679,UTa2O7,0.1501999999999999,0
mp-17464,SrGeO3,3.4068,0
mp-568203,K2Th(PSe3)3,1.7459000000000002,0
mp-768893,Mg2(TeO3)3,1.7748,0
mp-642845,Rb3H5Pt,2.7381,0
mp-1044546,Ba2AlSn2F11,4.128699999999999,0
mp-768317,Dy2SiO5,4.5469,0
mp-722997,NaCaAlH2OF6,6.6368,0
mp-754692,Bi2BO5,0.0,0
mp-562248,Ag3CS(NO2)3,2.0935,0
mp-777459,Li3FeF6,3.8142000000000005,0
mp-3839,GaCuTe2,0.20330000000000048,0
mp-975892,PrMgAg2,0.0,0
mp-779306,Li3Fe(BO3)2,2.1966,0
mp-977443,ZrGeRu2,0.0,0
mp-5808,RbNdTe2,1.3272,0
mp-542605,Se,1.3901999999999999,0
mp-1030685,TeMoWSe2S,0.0,0
mp-669547,Re2Si,0.0,0
mp-555340,AsIF12,0.6263999999999998,0
mp-763433,Li2MnF4,3.7436999999999996,0
mp-29500,Ge7F16,4.3804,0
mp-28195,SiAg2O3,0.6345999999999998,0
mp-1043866,MgTi3O7,2.8266,0
mp-567910,CdHg6(As2Br3)2,1.3414,0
mp-3869,TbBRh3,0.0,0
mp-510346,In5Se5Br,0.7419999999999995,0
mp-625548,Cd(HO)2,1.637,0
mp-6563,TbAl9(Fe2Si3)2,0.0,0
mp-685878,Mg9(In13S24)2,0.16159999999999997,0
mp-752942,LiTi2O4,0.0,0
mp-651155,TeI4,1.7073,0
mp-14678,Y3Sc2Al3O12,4.2714,0
mp-23970,NdP2H9O10,5.2907,0
mp-16911,Rb2S5,1.9539000000000002,0
mp-999046,Ti2InCo,0.0,0
mp-976047,Li3Hg,0.0,0
mp-1028772,WSeS,0.8118000000000003,0
mp-556069,Tb11O20,0.0,0
mp-11992,LiLa2IrO6,0.0,0
mp-761893,Li2Cu3F7,0.0,0
mp-675645,Tb2PbS4,2.0344000000000007,0
mp-865000,HfScIr2,0.0,0
mp-763246,LiCoSiO4,1.3864,0
mp-569052,AgSe3I,1.3963999999999999,0
mp-631311,IrOsW,0.0,0
mp-7595,GeF2,4.0597,0
mp-1045965,MgSnO2,1.0879999999999996,0
mp-568806,C,0.0,0
mp-568541,Dy2B4C,0.0,0
mp-2147,SrGe,0.0,0
mp-1046701,VZnPO5,1.8377999999999997,0
mp-686280,Nd4AlSi5(NO)7,1.6211000000000002,0
mp-766256,YTmO3,4.0595,0
mp-20234,Li2BPt3,0.0,0
mp-559355,Hg3AsS4Cl,1.5137999999999998,0
mp-29289,BaPt2S3,0.9731999999999998,0
mp-570152,Co2(SnSe)3,0.33840000000000003,0
mp-705291,LiCrP2O7,2.8553,0
mp-1013734,Ba3AsN,0.0,0
mp-23748,MgBHO3,5.4376999999999995,0
mp-631484,TaTiAl,0.0,0
mp-600205,H10C5SeS2N3Cl,2.5227,0
mp-645303,Cs4CO4,0.7968000000000002,0
mp-14401,NaCaPO4,4.914,0
mp-753946,LiCoS2,0.6646000000000001,0
mp-570219,InBr3,2.489,0
mp-6575,Ba4Na(BO3)3,3.9839,0
mp-569896,K14(Tl7Cd3)3,0.0,0
mp-631194,La3Ga4Cl,0.0,0
mp-15800,Ti3PO2,0.0,0
mp-973815,Pa3Ta,0.0,0
mp-7471,Li3AuO3,1.8710999999999998,0
mp-780274,Hf2N2O,1.9789999999999992,0
mp-20379,DyTh,0.0,0
mp-766358,Bi5O7F,2.4939000000000004,0
mp-10533,YCuS2,1.5946999999999996,0
mp-779608,Ba3(BO3)2,3.1068999999999996,0
mp-625136,CsHO,3.4329,0
mp-976397,Ho3(In2Co)2,0.0,0
mp-558336,Ho2O3,4.0554,0
mp-865259,HoHg3,0.0,0
mp-708035,NaZn(H3O2)3,3.4801,0
mp-30849,TaPt2,0.0,0
mp-33857,CrSbO4,0.8623000000000003,0
mp-867163,Sr2AgPt,0.0,0
mp-36890,TaBi3O7,2.2546999999999997,0
mp-31454,TaSbRu,0.6669,0
mp-757850,K4Sb2O5,2.3454999999999995,0
mp-570936,K(SnAu)3,0.0,0
mp-2392,Th2Se5,0.7171000000000003,0
mp-17887,SnP2O7,3.3217999999999996,0
mp-604594,Ce2In5Pd4,0.0,0
mp-778397,Li2Sn(BO3)2,3.0463999999999998,0
mp-2167,DyAg,0.0,0
mp-541756,Te2MoCl12,0.005700000000000038,0
mp-554110,CSNO3,3.7853,0
mp-7352,MgCuP,0.018499999999999517,0
mp-756642,K3SbPCO7,0.5536999999999996,0
mp-624909,LaNb2CuBrO7,0.0,0
mp-754239,ScGaO3,4.0845,0
mp-560687,Nb3Te8I7O,0.46050000000000013,0
mp-768490,Bi2(SO4)3,4.1958,0
mp-7423,Sm3ReO8,1.7634000000000003,0
mp-600232,NpNiSn,0.0,0
mp-20766,CeCuGe,0.0,0
mp-1042164,Ca2Nb2BiO8,0.0,0
mp-1044078,LaZnFeAgO6,0.1311,0
mp-561222,K2HgBr2(NO6)2,1.9283000000000001,0
mp-1047430,Ba(SbO2)4,0.0,0
mp-31723,Li3Cr(PO4)2,2.7819000000000003,0
mp-697278,NaCaAlH2OF6,6.5999,0
mp-2729,Sn7Os3,0.0,0
mp-6386,K2ZnGeO4,2.8518,0
mp-867117,Sc2CuPt,0.0,0
mp-1046181,Ca2Ta2CoO8,2.733,0
mp-27353,SbCl2F3,1.8671,0
mp-977396,TbMgRh2,0.0,0
mp-1048188,Ba2Sn3O7,0.0,0
mp-1048253,TiZnO2,0.0,0
mp-1019805,KB(S2O7)2,5.5005,0
mp-10186,PuSi2,0.0,0
mp-20340,EuN,0.0,0
mp-16336,Zr2Fe3Si,0.0,0
mp-22401,Nd2Re3Si5,0.0,0
mp-41109,Ca3Er3Ge2BO13,3.6346,0
mp-34421,CdBi3O7,0.0,0
mp-570817,Cu2P8Se3I2,1.3297999999999996,0
mp-720593,Na2B5H5O11,4.9627,0
mp-23370,CuW3Br7,2.0637999999999996,0
mp-555392,K6NaAu2IO8,1.8901,0
mp-999485,ZnN,0.0,0
mp-1041169,MgCu3P3O13,0.0,0
mp-973456,Lu2TcAu,0.0,0
mp-695891,CdH6C(BrN)3,3.1908000000000003,0
mp-21536,Ni2Mo4C,0.0,0
mp-631331,Si2HgTe,0.0,0
mp-12350,SiO2,6.1956,0
mp-18888,Sr2CdWO6,3.5122,0
mp-3307,BaSO4,4.5086,0
mp-21027,CaIn2Pt,0.0,0
mp-11113,TiTeAs,0.0,0
mp-753318,DyBO3,4.514,0
mp-24130,CaP2(HO)4,5.5901,0
mp-29621,Ba5Bi3,0.0,0
mp-2318,Nb2C,0.0,0
mp-677222,Ba3La3Ti4NbO18,2.4082999999999997,0
mp-24154,NbH2,0.0,0
mp-3958,Er(SiOs)2,0.0,0
mp-6760,Na3La9B8O27,4.0102,0
mp-769074,Na2LiTi3Al(PO4)6,2.5088,0
mp-1800,Nd2C3,0.0,0
mp-1986,ZnO,0.6310999999999999,0
mp-1031127,RbLiMg6O7,0.0,0
mp-8215,LaYbS3,0.0,0
mp-8230,Zn(PO3)2,4.6635,0
mp-770499,Mn4P2O9,2.1851000000000003,0
mp-1020012,Li2Ge4O9,2.7380999999999998,0
mp-772609,La2Zn2O5,1.5065,0
mp-569813,In5AgTe8,0.2822999999999998,0
mp-703539,AgB11H6CBr6,3.2973,0
mp-558523,PAuClF3,3.5272,0
mp-555394,SiO2,4.0687,0
mp-558153,Ba4Nb2(OF4)3,3.3527,0
mp-606510,CsTaI6,1.1788,0
mp-1041003,MgP2W2O9,1.8542000000000005,0
mp-766387,RbAl11O17,4.7303999999999995,0
mp-672256,Y5Ga3,0.0,0
mp-21297,LiSn4Ru,0.0,0
mp-752882,LiAgF2,1.5272,0
mp-985556,CdNi,0.0,0
mp-2836,Dy5Si3,0.0,0
mp-30954,GaI3,2.3617,0
mp-28406,SCl2O,3.6424,0
mp-830,GaN,1.5635,0
mp-14115,LiRhO2,1.513,0
mp-21313,Mn3GaC,0.0,0
mp-22612,FeCu2SnSe4,0.0,0
mp-3292,Tb(CoSi)2,0.0,0
mp-677548,Na(NO2)2,0.0,0
mp-567653,Ti3Ni4,0.0,0
mp-15141,NaZr2ZnF11,5.7288,0
mp-998156,RbSnCl3,0.9881000000000002,0
mp-1001613,LuGa,0.0,0
mp-780579,Li3V3P8O29,1.2389,0
mp-19119,Sr2NiOsO6,0.0,0
mp-675672,Zr5Sc2O13,3.647,0
mp-559655,PNF2,5.7734000000000005,0
mp-561374,CaTeO3,3.1241000000000003,0
mp-770899,Li2V3O8,1.9909999999999999,0
mp-18662,Ho2Si2O7,5.0286,0
mp-558314,TaBi4ClO8,1.0065999999999997,0
mp-768237,Gd2HfO5,3.1575000000000006,0
mp-21272,ErNiSb,0.2741000000000007,0
mp-775261,Li2MnFe(BO3)2,2.7141,0
mp-19139,Mg2Mo3O8,1.6410000000000005,0
mp-771948,Ba3LaCl9,3.7824,0
mp-772193,La(HO)3,4.2526,0
mp-25456,Li2CuPCO7,0.0,0
mp-13503,ScZn2,0.0,0
mp-867198,LiGaPd2,0.0,0
mp-557347,Ca2As3Pb3ClO12,3.435,0
mp-20385,Nd3InC,0.0,0
mp-762034,Li2Co2P2O9,1.0645,0
mp-973631,Lu2AlRu,0.0,0
mp-1028490,Te2MoW3(SeS2)2,0.0,0
mp-1047593,Zn(SbO2)2,1.2872999999999992,0
mp-769792,Li4Fe5CoO12,0.0,0
mp-1025675,Te4Mo2WSe2,0.39860000000000007,0
mp-753055,TbBi5O9,1.6101999999999999,0
mp-556288,Li2ReO3,0.0,0
mp-6520,Ba3MgRu2O9,0.0,0
mp-757280,Ba2As6O11,3.1679000000000004,0
mp-559765,KHg2S(ClO)3,2.6843,0
mp-1043327,CaW2O5,1.0661999999999998,0
mp-13041,Yb2C(NO)2,0.0,0
mp-1047132,Ca(AgO2)2,0.7873,0
mp-1029863,K15Re7N19,0.018400000000000194,0
mp-644264,Ca4Mg4Fe3H22,1.4456000000000002,0
mp-1020595,Rb8PO3,0.0,0
mp-998968,TiMo,0.0,0
mp-569117,CsLi2Cl3,5.2393,0
mp-21194,NdGeRu,0.0,0
mp-505772,Rb2NaH5(CO4)2,4.1978,0
mp-723044,ZnH12N3Cl5,4.4143,0
mp-11752,Lu7(NiTe)2,0.0,0
mp-675122,Na2UI6,0.0,0
mp-13025,YbZnPd,0.0,0
mp-542464,Ga2H6(SeO4)3,3.9646999999999997,0
mp-1261,EuZn,0.0,0
mp-567720,CuHgSeBr,0.4629000000000001,0
mp-989407,YWN3,1.5167000000000002,0
mp-608543,Sc2CrC3,0.0,0
mp-1049283,HoZn(BiO3)2,0.0,0
mp-861913,LiDy2Al,0.0,0
mp-31472,Rb5Hg19,0.0,0
mp-763519,Li4Mn3Nb2Co3O16,0.5063,0
mp-766881,H7SIO10,2.3634,0
mp-773129,LiSn2(PO4)3,2.7049000000000003,0
mp-554003,Sr4Li(BO3)3,4.1874,0
mp-542385,K2MnH4(SeO5)2,2.2545,0
mp-767716,LiVSi3O8,2.1659,0
mp-762088,K2OsO5,1.6619,0
mp-16559,KHo2CuSe4,0.9224000000000001,0
mp-764043,Li3Mn3NiO8,0.3628,0
mp-630760,KHgC3(SN)3,1.8858000000000001,0
mp-1044443,CaPr(SbO3)2,0.0,0
mp-684006,Ag3TeIO4,0.1964999999999999,0
mp-974769,EuNiGe3,0.0,0
mp-17972,Zn2Hg2OF6,0.8682,0
mp-760052,Hf2N2O,1.8812000000000006,0
mp-1040924,SbP2O7,0.01330000000000009,0
mp-1016559,BaMg6W,0.0,0
mp-979713,YHgPd2,0.0,0
mp-765046,Li4V2OF7,0.9141999999999999,0
mp-31102,Tb3ReO7,0.0,0
mp-753122,Sr2CuH2(SeO3)4,0.7816000000000003,0
mp-755353,Sr2Ti6N2O11,1.7830000000000004,0
mp-27263,Rb2MnBr4,1.1516,0
mp-27296,ZrTi2O,0.0,0
mp-976284,EuSbO3,0.0,0
mp-559330,Sr4B14O25,5.206200000000001,0
mp-778250,Li3FeF6,3.7585,0
mp-772019,Ba5La2Cl16,4.2429,0
mp-859874,Mg2PbO4,1.3297999999999996,0
mp-695307,K6Sb2H18S8O9,2.0284,0
mp-997617,BOs,0.0,0
mp-1044192,CaMn2(PO5)2,0.0,0
mp-1042075,SbS2,0.0,0
mp-546864,Y2C(NO)2,3.9662,0
mp-559776,Li5La3Ta2O12,3.9718999999999998,0
mp-754196,Ba2SrI6,3.6619,0
mp-21568,BaSm2CuO5,0.0,0
mp-36465,Al2FeO4,2.3609,0
mp-20030,U2InCo2,0.0,0
mp-772533,FePO4F,0.0,0
mp-758849,CuSn(PO4)2,0.19890000000000008,0
mp-4599,Ce(TeO3)2,1.3596999999999997,0
mp-865616,Yb2AgIr,0.0,0
mp-21949,K4PbO3,2.279,0
mp-20760,La2In,0.0,0
mp-17975,KSrPO4,5.0889,0
mp-5189,AlAsO4,3.865,0
mp-36734,CeThO4,1.6536000000000008,0
mp-18673,CsZnPO4,3.8805999999999994,0
mp-541238,KTi2(PO4)3,2.5455,0
mp-547271,ReO3,0.0,0
mp-18566,LaSnF7,5.203,0
mp-976587,KP2AuS7,1.5375999999999999,0
mp-28647,AsBr5F6,1.6202999999999999,0
mp-567527,Eu(Al10V)2,0.0,0
mp-1019516,Ba4GaN3O,1.1839,0
mp-505424,VCdCuO4,1.1139999999999999,0
mp-7191,Sr3GaN3,0.5667000000000004,0
mp-568636,TiCr2,0.0,0
mp-672351,Sm6Br13,0.0,0
mp-650023,K2PdC4(SN)4,1.5867,0
mp-540629,Al2Te2Cl7,1.4057,0
mp-6820,Cu2Hg2SF6,0.0,0
mp-13240,ScInCu4,0.0,0
mp-675425,Ho14(PbS8)3,2.1927000000000003,0
mp-33526,LiBiS2,0.8113000000000001,0
mp-8840,Na5InO4,1.7742,0
mp-1342,BaO,2.0906000000000002,0
mp-23131,Sr2BN2Cl,2.7508,0
mp-602,Te2Mo,0.9657,0
mp-973778,Hg3F,0.0,0
mp-555942,Er3SiSe2O10F,4.0849,0
mp-755658,CePrO2,0.0,0
mp-976405,NaEr3,0.0,0
mp-1660,ErZn,0.0,0
mp-23332,BiPO4,2.0128000000000004,0
mp-764672,Li3Fe8(BO3)8,1.4555,0
mp-772497,Er4(B2O5)3,5.580500000000001,0
mp-618324,ZrCo3B2,0.0,0
mp-643384,BaHIO,3.9361999999999995,0
mp-18258,BaTb2O4,3.2026,0
mp-861714,Li2VCrP2(O4F)2,2.0339,0
mp-755054,Ti3N2O3,1.4486999999999997,0
mp-723054,CdHSeNO6,0.0,0
mp-756666,BaCaI4,3.9106,0
mp-861904,La3AlCrS7,0.0,0
mp-10849,AsPdSe,0.0,0
mp-569019,Gd3Ti2MnSi3,0.0,0
mp-19262,Cr2CdO4,2.4764999999999997,0
mp-1029705,Na15Cr7N19,0.5928,0
mp-760184,Na4Ti5O12,2.7626,0
mp-10415,Yb3(GePd)4,0.0,0
mp-695635,Li3Al3P3H2O14F,5.7714,0
mp-541900,AlH15(NF)6,5.5093000000000005,0
mp-867673,Na3(Pt3O4)4,0.0,0
mp-4165,TaNO,1.9319999999999995,0
mp-676988,Na3HoTi2Nb2O12,2.5575,0
mp-772660,NbCrO4,1.976,0
mp-14083,K2FeNi(CN)6,1.5027,0
mp-631428,TlCoW,0.0,0
mp-1602,SiS2,3.0676,0
mp-1004532,CCl4,4.5106,0
mp-616173,Ce5NiGe2,0.0,0
mp-756953,KSbPCO7,0.0,0
mp-567347,Li2AgSn,0.0,0
mp-6428,Ba2YRuO6,0.08999999999999986,0
mp-540553,Te7(OF5)6,2.3632,0
mp-1044000,CaLaFeMoO6,1.1514000000000006,0
mp-976,V6Si5,0.0,0
mp-540665,Cu7As6Se13,0.0,0
mp-1047232,WO2,2.4804999999999997,0
mp-18989,LaVO4,3.5130999999999997,0
mp-759835,CeMgAu,0.0,0
mp-19732,Cs2CuPb(NO2)6,0.0,0
mp-28781,PrZr3F15,5.762700000000001,0
mp-865092,MgGaNi2,0.0,0
mp-581963,K4Hf3Te17,0.9113000000000002,0
mp-998911,TmGe,0.0,0
mp-1045412,Ti2ZnO4,0.0,0
mp-775103,V4(OF3)3,1.4002000000000001,0
mp-977387,TbAgHg2,0.0,0
mp-760332,Sb6O5F8,2.9281,0