mp_id,formula,band_gap,fidelity
mp-861148,LiNi5P3O13,2.6714,0
mp-759962,PH5NO3F,5.3482,0
mp-703528,RbP(HO2)2,5.184,0
mp-570801,Y3(Ge3Pt2)2,0.0,0
mp-1048131,Ba2YNi3O8,0.0,0
mp-555071,BrN(OF2)2,2.341,0
mp-645719,Ca4In3Au10,0.0,0
mp-20540,YbSbPd,0.0,0
mp-7588,CdGeO3,1.301,0
mp-559065,NaI3O8,3.1308000000000002,0
mp-504862,Ti4Cd(CuO4)3,0.0,0
mp-572833,Cs3Sm(PS4)2,2.1903000000000006,0
mp-28321,Sc7CI12,0.0,0
mp-11581,Tm2NiAs2,0.0,0
mp-5160,AgBF5,0.0,0
mp-637609,Ce12InPt7,0.0,0
mp-707231,As2PHO6,4.2371,0
mp-5416,Na2SeO3,4.2235,0
mp-20002,FeAg2SnS4,0.0,0
mp-558042,Sm3CuSnS7,1.6872999999999996,0
mp-1031383,KRbMg6O7,0.0,0
mp-22165,Ce(CoB)4,0.0,0
mp-775959,LiLa7(CuO7)2,0.03699999999999992,0
mp-978795,Sm3Hg,0.0,0
mp-2525,PrAg,0.0,0
mp-623024,TiCdF6,4.3747,0
mp-756544,LiLaO2,3.5436000000000005,0
mp-698480,Sb4H2SO10,3.3641000000000005,0
mp-734042,MgH12(NO6)2,3.5098000000000003,0
mp-850986,Li6Co6O5F11,0.2398,0
mp-978519,Sm2AlCd,0.0,0
mp-973498,In3Au,0.0,0
mp-14549,CuO,0.0,0
mp-626293,Sr(H8O5)2,3.1307,0
mp-758006,Ca2SiO4,4.1639,0
mp-779250,Li2FeBO4,2.2207,0
mp-1044749,PrMg(NiO3)2,0.0,0
mp-984755,Nb4Ag2O11,2.3722999999999996,0
mp-753692,Ho2Ge2O7,3.0028999999999995,0
mp-28499,Al10Ge2O19,2.1205,0
mp-9566,Sr(MgSb)2,0.9813000000000001,0
mp-767597,LiMnF5,1.9944,0
mp-5394,LaSF,1.4811999999999994,0
mp-753714,Li3CuS2,2.4626,0
mp-1027440,MoW(SeS)2,0.6385999999999998,0
mp-11653,BPO4,6.9876,0
mp-1047231,Sr2Y2V2O7,0.0,0
mp-582587,SbH6C2I,2.5887000000000002,0
mp-1005955,Tm3Ni7B2,0.0,0
mp-761144,Na3LiSbP2O9,0.0030000000000001137,0
mp-753000,NaSb3O8,0.7238999999999995,0
mp-31094,Tb2FeSi2,0.0,0
mp-18799,YbVO4,0.0,0
mp-998981,TiAl3,0.0,0
mp-40866,CaLaTiMnO6,0.18399999999999928,0
mp-865284,Tm2CdOs,0.0,0
mp-626259,H3NO4,3.3335,0
mp-5508,Th(SiPd)2,0.0,0
mp-510560,CeF3,0.1993999999999998,0
mp-560453,Ca7Cu(PtO6)2,0.0,0
mp-1017987,Tc3N,0.0,0
mp-18190,CaCu3(SnO3)4,0.5281000000000002,0
mp-776769,Li2Fe2(PO4)3,0.0,0
mp-763619,Li2Fe(SiO3)2,3.3924999999999996,0
mp-3033,RbTaO3,3.5412,0
mp-768906,YBrO,4.4876000000000005,0
mp-752477,K3NaFeCl6,0.011299999999999866,0
mp-676410,LuAgS2,0.7313000000000001,0
mp-556253,Tm2O3,4.1691,0
mp-763205,Li2VO2F,0.9741,0
mp-758594,Li(Fe3P2)2,0.0,0
mp-624299,Cu7S4,0.0,0
mp-233,UO3,0.46579999999999977,0
mp-1043010,ZnCu(GeO3)2,0.12290000000000001,0
mp-865606,CsTaGeS5,0.9888999999999999,0
mp-1046244,SrBi(PO4)2,0.0,0
mp-3248,TbAsO4,3.6466000000000003,0
mp-758379,Y11Ta5O28,0.9859,0
mp-861983,Ti2MnFe,0.0,0
mp-4953,CdGeAs2,0.03100000000000014,0
mp-699368,Na3(W2O3)2,0.0,0
mp-678358,Hf5ZrTe8,0.0,0
mp-350,Zr5Te4,0.0,0
mp-769173,PrOF,4.437099999999999,0
mp-540093,CoPO4,1.0980999999999999,0
mp-557574,Cu2HgGeS4,0.03849999999999998,0
mp-999130,TbNi,0.0,0
mp-1002571,NaMn2O4,0.5661,0
mp-30023,Ba(AlCl4)2,5.3835999999999995,0
mp-9330,CdPS3,1.7726999999999997,0
mp-769629,Mn2V3P6WO24,0.0,0
mp-1028420,Mo3WSe8,0.923,0
mp-5311,UBN,0.0,0
mp-10000,Hf2S,0.0,0
mp-349,Yb3Si5,0.0,0
mp-773953,Ba2LaCl7,4.4004,0
mp-1029307,TeMoWS3,0.0,0
mp-772554,Li4Nb3V5O16,0.20040000000000013,0
mp-560981,NaMg4(PO4)3,4.6212,0
mp-22731,MnInNi2,0.0,0
mp-676801,K7Th6F31,5.8527,0
mp-559768,La2Ti2O7,2.8423999999999996,0
mp-770239,Ba2Ta2O7,2.9092000000000002,0
mp-769601,LiVSO4F3,1.3764,0
mp-771996,Li3Mg2Fe19O32,1.1775000000000002,0
mp-867186,CeZn2Ag,0.0,0
mp-1008376,CeH3,0.0,0
mp-779775,Li24Ti11CrO36,1.3312999999999997,0
mp-6997,Sb2Te,0.0,0
mp-772303,Sb2(PO4)3,0.0,0
mp-4466,Tb(SiNi)2,0.0,0
mp-775424,Na5Li4Ti5O14,0.0484,0
mp-31075,Hg3(SeBr)2,1.3272,0
mp-989575,Cs2AlTlH6,1.1345,0
mp-15433,K2Ga2Sb3,0.9068999999999998,0
mp-571485,Tm(SiPd)2,0.0,0
mp-610430,BiBr3,2.515,0
mp-3597,BaRuO3,0.0,0
mp-1041677,MgSnP2O7,3.3807,0
mp-720802,Na6HfH8S5O24,4.6625,0
mp-12697,Sc(MnSn)6,0.0,0
mp-769290,LiCuPO4,0.20250000000000012,0
mp-772430,Li2AlFeO4,2.1542,0
mp-973198,Na,0.0,0
mp-827,KN3,4.1559,0
mp-27292,Hg3As2F12,2.6234,0
mp-973878,Lu3Ga5Ni,0.0,0
mp-23516,Cu2Cl2O,0.0,0
mp-643710,Cs3B12H12I,4.535,0
mp-568970,K3SnIrCl8,1.5882,0
mp-14396,Mg3(PO4)2,5.106400000000001,0
mp-543039,TePbO3,3.0439000000000003,0
mp-554724,CuP4S3I,1.7032000000000003,0
mp-10569,YbSiIr,0.0,0
mp-7986,CaSnO3,1.3904999999999994,0
mp-1048015,CaFe4O9,0.0,0
mp-28917,Ba2Ti13O22,0.0,0
mp-28856,Na7Au5S6,2.2102,0
mp-7915,ZrSiO,0.0,0
mp-542858,Zn3Co2(CN)12,4.3247,0
mp-764115,V3O7,1.1608,0
mp-1030961,Te2Mo3W(SeS2)2,0.0,0
mp-6249,Sr3Nd2(BO3)4,4.569699999999999,0
mp-774349,Li6MnFe5(BO3)6,2.8355999999999995,0
mp-9321,Ba2HfS4,0.8648000000000002,0
mp-20914,NdIn2Ir,0.0,0
mp-1028857,MoWSe3S,0.6859999999999999,0
mp-12598,PrPt3,0.0,0
mp-774373,Li3MnFe2(BO3)3,2.7431,0
mp-1034206,RbHfMg14O15,0.0,0
mp-984761,CsRb2Sb,0.6509999999999998,0
mp-5221,HfAlCo2,0.0,0
mp-21462,Eu,0.0,0
mp-560368,Na6Cu9(PO4)8,0.17789999999999973,0
mp-22997,PbBrCl,3.4375999999999998,0
mp-770423,Mg2Mn3O8,1.3632000000000004,0
mp-27308,SbBrF8,2.6902,0
mp-23806,BaAsH3O5,3.9765,0
mp-5541,ZrVSi,0.0,0
mp-5996,Na2Ti2Si2O9,3.2630000000000003,0
mp-600242,InH24C6(Br2N)3,2.7839,0
mp-765119,Li8Mn3CrO12,0.9127999999999998,0
mp-777595,LiFeF4,3.4054,0
mp-7787,HfSO,2.8690999999999995,0
mp-637576,Mn4N,0.0,0
mp-698722,Ca5Yb3Ti5Mn3O24,0.42779999999999996,0
mp-1040884,Mn2Zn(PO4)2,2.4822999999999995,0
mp-1016850,BaRhO3,0.0,0
mp-1019804,KB(SO4)2,6.2377,0
mp-28104,Fe2MoP12,0.0045999999999999375,0
mp-541722,CsBa2Br5,4.3948,0
mp-769138,Dy2Sb2O7,1.8993000000000002,0
mp-862998,Si2O5,2.766,0
mp-773178,Na2CrCSO7,2.3779,0
mp-868020,Nb6Cd(Br8O9)2,0.0,0
mp-8338,TaF3,0.0,0
mp-2435,HoCo5,0.0,0
mp-754005,Mg(CO2)2,3.4503999999999997,0
mp-977439,Ce2ZnPb,0.0,0
mp-676121,Ag3SI,0.3738999999999999,0
mp-29903,TlTeF5,4.4514,0
mp-867358,PuCl2,0.0,0
mp-770692,Ga2WO6,2.7165,0
mp-770534,Li2Mn3O7,1.3963999999999999,0
mp-12581,CdTe,0.0,0
mp-30589,LaCu4,0.0,0
mp-756281,TmAlO3,5.7744,0
mp-1019109,SmGeRu,0.0,0
mp-569538,LaNiSb3,0.0,0
mp-631320,TcIrOs,0.0,0
mp-13259,CsHoCoSe3,0.0,0
mp-1011858,Na2CoP2O7,2.6830999999999996,0
mp-23307,NbCl5,2.2205,0
mp-862485,GaCuRh2,0.0,0
mp-8415,K2HfF6,6.8346,0
mp-30856,ZnPt3,0.0,0
mp-1048853,Ca(FeO2)2,1.6461000000000001,0
mp-752670,Li3FeS3,0.0,0
mp-735586,KFe2H(SeO3)4,2.2587,0
mp-971855,Tm2Co3Si5,0.0,0
mp-36508,SnHgF6,2.4352,0
mp-1003437,KMn2O4,0.9200000000000002,0
mp-24065,CaB2H10O9,5.2523,0
mp-1176,TbTe,0.0,0
mp-1016829,MgRuO3,0.0,0
mp-29950,Nb3Cl8,0.1459999999999999,0
mp-2880,LuB2Os3,0.0,0
mp-571653,C3N4,2.476800000000001,0
mp-5175,NaInO2,1.9142000000000001,0
mp-760360,Hf3N2O3,3.2885999999999997,0
mp-622213,GeS2,2.1396,0
mp-770727,Li3Al2FeO6,2.6281000000000003,0
mp-9460,Zn3N2,0.0,0
mp-1041554,Zn(CuO2)2,0.0,0
mp-754960,SmIO,2.1786999999999996,0
mp-19714,GdGeRu,0.0,0
mp-27231,Li2TeO3,3.6614,0
mp-1003402,CaMnO2,2.1634999999999995,0
mp-1043811,ZnFe(GeO3)2,1.089,0
mp-849985,Co3(OF2)2,0.0,0
mp-18108,Dy4(B2O5)3,5.4521,0
mp-704535,Tl2Mo7O22,0.0,0
mp-542168,Cs2CoSiO4,2.7201000000000004,0
mp-600480,Y12Ni6Pb,0.0,0
mp-1077,B2Ru,0.0,0
mp-28628,Li3FeN2,0.0,0
mp-722906,Na3CuB8H17O23,0.6148,0
mp-571578,CdI2,2.3557,0
mp-557877,C2SeS2O7F6,3.6235,0
mp-571189,NaHf2CuSe5,0.4765999999999999,0
mp-14364,Cs2LiAsO4,3.7302000000000004,0
mp-31019,Al45Cr7,0.0,0
mp-558350,Zn2TeBr2O3,3.2928,0
mp-976326,NaInAg2,0.0,0
mp-19045,Ba2MnZn2(AsO)2,0.0,0
mp-554645,K3Sb2N2O6F7,2.9622,0
mp-21238,ThSi,0.0,0
mp-759926,Li2Ti(BO3)2,2.9516,0
mp-559356,Tl3AsS3,1.565,0
mp-774421,Li3Fe8(BO3)8,1.6997,0
mp-867242,Sc2ZnGa,0.0,0
mp-4382,YB2Ru3,0.0,0
mp-759796,Mg5Ti13O30,0.0,0
mp-8863,Ba3MoN4,1.8505000000000003,0
mp-1042040,MgVP2O7,2.6677999999999997,0
mp-975896,PrNdTl2,0.0,0
mp-989520,Rb2NaBiCl6,3.7342,0
mp-560587,Rb2Sb8O13,2.3306,0
mp-757673,LiTiP2O7,0.036000000000000476,0
mp-625964,Ba(H2O3)2,0.12349999999999994,0
mp-24336,MgH4(ClO)2,5.3195,0
mp-863657,PmCl2,0.0,0
mp-753354,Eu4O3F7,0.0,0
mp-614502,Gd,0.0,0
mp-20440,MnNi2Sn,0.0,0
mp-1027475,TeMoWS3,0.0,0
mp-18422,RbLiZn2O3,1.8536,0
mp-560236,MgF2,6.2865,0
mp-20011,NaSbO3,1.4933999999999998,0
mp-864969,Mg2PdRh,0.0,0
mp-561437,Al2Ge(O2F)2,4.0658,0
mp-21628,Mn6Ni16As7,0.0,0
mp-27699,S3(NCl)2,1.7123000000000002,0
mp-6922,SiO2,5.5311,0
mp-17366,Ho2SiSO4,2.6337,0
mp-754214,TlAsO4,0.0,0
mp-978264,MgW3,0.0,0
mp-30674,Ti5Ga3,0.0,0
mp-759603,H9CN5Cl2,4.702999999999999,0
mp-676687,RbAg4I5,1.1359000000000001,0
mp-1027448,TeMo2Se2S,0.0,0
mp-11908,Lu5Si3,0.0,0
mp-504667,RbIn(WO4)2,4.6388,0
mp-29416,Pr5C2Br9,1.5333999999999999,0
mp-620290,Sr2TlCuO5,0.0,0
mp-7385,K2Be2PbF8,5.547,0
mp-510409,TiSiNi,0.0,0
mp-759128,Li3Sb2(PO4)3,3.6068,0
mp-680578,Sm4Si3Pd4,0.0,0
mp-540878,La3Re2O9,0.21030000000000015,0
mp-767617,LiVF4,2.3609,0
mp-22854,Pr2I5,0.13020000000000032,0
mp-604315,Zn(BH4)2,4.2519,0
mp-27997,Ca3Al2Ge3,0.0,0
mp-558387,TeOF2,4.189,0
mp-29313,Ta4P4S29,1.0363000000000002,0
mp-505173,NaZrCuTe3,0.0,0
mp-756718,Li4Bi2O5,2.6845999999999997,0
mp-761190,LiCu(PO3)3,0.47219999999999995,0
mp-979419,Dy3Y,0.0,0
mp-973979,LiFePd2,0.0,0
mp-624,B6As,2.6454000000000004,0
mp-1027304,Te2Mo3WS6,0.0,0
mp-17465,Gd2Cu(SeO3)4,0.5251000000000001,0
mp-866296,AlCuPd2,0.0,0
mp-720789,UH12(NO7)2,2.412,0
mp-30981,Te(HO)6,3.0698,0
mp-556999,ErSeO3F,4.2923,0
mp-505244,FeCuSe2,0.0,0
mp-2339,Ti3Pt,0.0,0
mp-1046832,Sr2V2GaO7,0.6709999999999998,0
mp-1009491,RbTe,0.0,0
mp-18504,Ca3(GeAs2)2,0.6160999999999999,0
mp-1588,C11F7,2.2206,0
mp-6641,Ba3SrRu2O9,0.3083999999999998,0
mp-18868,RbFe(MoO4)2,2.6065,0
mp-6473,Ca5P3O12F,5.5148,0
mp-557758,LaMg(BO2)5,4.7440999999999995,0
mp-722266,Na2GeH16Se3O8,2.1426,0
mp-22387,U2N3,0.0,0
mp-558078,Rb2NaFeF6,4.0722000000000005,0
mp-770493,Li5V2Fe5O12,1.0949000000000004,0
mp-28769,K(SnSe2)2,1.1675000000000002,0
mp-1028510,Te4MoW3(SeS)2,0.007000000000000117,0
mp-4667,ZrSnRh,0.0,0
mp-29356,NaTi2O4,0.0,0
mp-928,HoIr2,0.0,0
mp-690794,Sr2HN,1.8070000000000002,0
mp-862373,ScS2,0.0,0
mp-23697,K3AlH6,1.7988000000000002,0
mp-19340,LiVO2,1.7771,0
mp-14787,Tm2S3,2.5249,0
mp-568315,CdCu2,0.0,0
mp-27302,TmCl2,0.0,0
mp-556385,Cs3ZnI4NO3,3.147,0
mp-1580,NbN,0.0,0
mp-631337,NaTaNi,0.0,0
mp-1027525,MoS2,1.4639999999999997,0
mp-863005,Ca2Al2Si6SnO22,0.0,0
mp-542271,Y2H16S3O20,5.3615,0
mp-542622,P4O7,4.1519,0
mp-542219,Li2ZrF6,6.0773,0
mp-22700,V3Se4,0.0,0
mp-1016330,SrMg6W,0.0,0
mp-780207,Li5FeO4,2.3853,0
mp-2207,NbSe2,0.0,0
mp-767701,Mn2VFe3(PO4)6,1.0704,0
mp-5408,Ag3AsO4,0.0,0
mp-740737,CuH12(BrO6)2,0.0,0
mp-615420,U3CuO10,0.3222999999999998,0
mp-23720,BeAlH5,3.601,0
mp-998610,TlAgCl3,0.0,0
mp-1900,CaAs3,0.0,0
mp-1025925,Mo3(SeS2)2,0.6036999999999999,0
mp-505402,Cu2WO4,1.3749000000000002,0
mp-9132,Ta3SnS6,0.0,0
mp-559871,AlF3,7.5154000000000005,0
mp-703426,MgH20C4Br2(N4O3)2,1.5997,0
mp-1019094,PrGeAu,0.0,0
mp-10162,La3Si2,0.0,0
mp-572929,U2Cu2As3O,0.0,0
mp-568728,Er2CoSi2,0.0,0
mp-774547,Er2GeO5,3.8644000000000003,0
mp-567060,AlSeBr3N,1.8812,0
mp-1019615,Cs3Li4(BO2)7,4.5217,0
mp-1042772,MgCrAs2O7,1.201,0
mp-8456,SrAsPt,0.0,0
mp-1527,TbCu2,0.0,0
mp-673244,Bi2O3,0.9078000000000008,0
mp-11270,MnBe2,0.0,0
mp-569398,La4Al5Br2,0.0,0
mp-642991,TbH3(CO2)3,3.9948,0
mp-1555,V3Sb,0.0,0
mp-31175,CeMg2Ag,0.0,0
mp-1858,HfO2,4.2272,0
mp-961678,ScCoTe,0.8677999999999999,0
mp-746662,NiH44C12(N5O8)2,3.146,0
mp-756526,Bi2B2O7,0.2197,0
mp-753657,TiOF,0.0,0
mp-27264,NaTiF4,0.20199999999999996,0
mp-3676,MgCu4Sn,0.0,0
mp-11719,K4ZnP2,0.9457,0
mp-11169,Ba(PIr)2,0.0,0
mp-863674,ErMgHg2,0.0,0
mp-558065,In4(P2O7)3,3.4044000000000003,0
mp-1018784,LiCe(CuP)2,0.0,0
mp-17093,ErSiPd,0.0,0
mp-772633,SrSc2O4,4.035,0
mp-641565,Er5Sb3,0.0,0
mp-778241,Li2V3F8,2.2001,0
mp-998412,KGeBr3,0.92,0
mp-654299,Fe3C9(SO5)2,2.1731,0
mp-1020642,Sr3Y2(BO3)4,4.5074,0
mp-770719,RbLi2Ni2(BO3)3,0.8729,0
mp-559284,Rb2Al2B2O7,4.1788,0
mp-567702,CsReCl4,1.1341999999999999,0
mp-14288,Sr3P4,0.8855000000000004,0
mp-29035,Sr(YS2)2,1.8113000000000001,0
mp-684626,As12S13,0.4928,0
mp-1044011,MgCo2(PO5)2,0.05689999999999973,0
mp-765394,LiNiPO4,3.2171999999999996,0
mp-770800,Li4Ti3Nb5O16,0.0,0
mp-1952,Ba7Al13,0.0,0
mp-673656,Y2Se3,1.5547,0
mp-567899,RbSi2H18C6N,3.1382000000000003,0
mp-558162,RbP(OF)2,5.1966,0
mp-35769,Sr4Lu3F17,6.6819,0
mp-559562,AgTeNO5,2.0141,0
mp-604254,U2Al20Fe,0.0,0
mp-19508,SrCr(Si2O5)2,3.2707,0
mp-19717,TePb,0.8071999999999999,0
mp-1044577,BaZn(NiO2)4,0.3266,0
mp-554508,KYP2O7,5.065,0
mp-769008,Li4Bi3O8,0.0,0
mp-30014,As2Kr3F16,1.149,0
mp-1184,La2C3,0.0,0
mp-776091,LiLaNdSbO6,3.917299999999999,0
mp-760304,Li2Cu2F7,0.038999999999999924,0
mp-768503,Lu(PO3)3,5.741099999999999,0
mp-1001581,LiC6,0.0,0
mp-626197,Sr(H8O5)2,3.5178000000000003,0
mp-30948,Tb(IO3)3,3.5406,0
mp-7808,BaP3,0.5735000000000001,0
mp-3104,BaZrN2,0.9972000000000003,0
mp-12334,KTl(CN)4,5.5138,0
mp-972504,Sm2AlZn,0.0,0
mp-972664,SmTh,0.0,0
mp-2000,CuSe2,0.0,0
mp-793779,Li4Fe3Co3(SnO8)2,0.0,0
mp-777491,Li3V2P4(HO8)2,0.9151,0
mp-625630,TeHO3,2.1456,0
mp-1027472,Mo3W(SeS3)2,0.5839999999999996,0
mp-866475,Ca3Sn2S7,0.6240000000000006,0
mp-505525,Nb4Zn2C,0.0,0
mp-20458,PtPbF6,1.9710999999999999,0
mp-867972,Na6U(SO5)4,0.135,0
mp-867787,RbTl2Bi,0.0,0
mp-9172,Li4TiO4,4.5573,0
mp-1022722,Bi3O2,0.0,0
mp-15706,LuB2C,0.0,0
mp-17410,CsEr3Se5,1.5437999999999998,0
mp-9855,KHfCuS3,0.7601999999999998,0
mp-556049,Sr4Br6O,4.2196,0
mp-780875,Mn8O13F3,0.0,0
mp-1009548,PdN,0.0,0
mp-861179,Zr7VO16,1.762,0
mp-771478,Mn3Fe2P6WO24,0.0,0
mp-28823,Ba4P3,0.7464,0
mp-972557,SmAg3,0.0,0
mp-775925,Li8Sb7S19,0.0,0
mp-32616,Ga2S3,1.8097000000000003,0
mp-6424,K2Zn(CN)4,6.050800000000001,0
mp-24510,BaH2I2O7,3.6479,0
mp-863408,LiSiBiO4,3.0357000000000003,0
mp-3671,NaNbO3,2.3619,0
mp-21290,HoInPt,0.0,0
mp-2403,YPt3,0.0,0
mp-13407,CeAgPb,0.0,0
mp-541853,U2(Co7B2)3,0.0,0
mp-11468,NdHg2,0.0,0
mp-34765,Tl4CuTe3,0.0,0
mp-505357,InSeI,1.4358,0
mp-999257,Sc2MnC,0.0,0
mp-1042953,CaSn(GeO3)2,1.8527,0
mp-767681,Li8Cr(FeO4)3,0.0,0
mp-18620,Mg(PO3)2,5.5284,0
mp-989607,LaOsN3,0.0,0
mp-8110,AlBO3,5.830899999999999,0
mp-766789,MnF3,0.8374000000000001,0
mp-30434,BaTl2,0.0,0
mp-680690,LaCu3(RuO3)4,0.0,0
mp-14155,HoP5O14,5.4553,0
mp-13306,YbCuGe,0.0,0
mp-10051,TeAs,0.0,0
mp-1030753,Te4Mo3W(SeS)2,0.0,0
mp-695873,ZnP3H12NO13,4.825799999999999,0
mp-560464,UTl2(TeO4)2,1.8321999999999998,0
mp-21447,Nb4CoP,0.0,0
mp-703492,Zr3Zn3C,0.0,0
mp-1048098,CaCuP2O7,0.011099999999999888,0
mp-5652,Y2Si2O7,4.8042,0
mp-2327,TiZn16,0.0,0
mp-1042438,ZnSnAs2O7,1.4058000000000002,0
mp-690566,NaCo2H3(SeO5)2,0.21950000000000003,0
mp-684721,TiNb2Zn(PbO3)4,0.22969999999999935,0
mp-543056,Mg7As6(HO6)4,2.9891000000000005,0
mp-753380,La(BiO2)2,0.0,0
mp-10852,La(BC)2,0.0,0
mp-14285,CoP2,0.43599999999999994,0
mp-761337,SrCrO3,0.6900999999999997,0
mp-862682,Ba2Ga2O5,0.0,0
mp-1042244,Mg(SbO2)2,2.5792,0
mp-756406,Li2Zr2O5,3.6528,0
mp-22284,SrInPt,0.0,0
mp-19996,Ba2GdNbO6,2.6514,0
mp-5150,HoSi2Ni,0.0,0
mp-974732,Rb3Y,0.0,0
mp-28869,Ga3B4Pt9,0.0,0
mp-21166,SrCaPb,0.27680000000000016,0
mp-758151,Li3Ti(PO4)2,0.22889999999999944,0
mp-662796,Os4C13(SO6)2,1.8984999999999999,0
mp-675479,PuPaO4,0.0,0
mp-11242,DyPbAu,0.0,0
mp-560349,La3NbO7,2.8479,0
mp-1045980,AlW3Se2ClO8,1.4888000000000001,0
mp-646733,SmInPt,0.0,0
mp-1047756,Al(WF5)3,3.003,0
mp-18733,AlTl(MoO4)2,3.8676,0
mp-23206,BiPd,0.0,0
mp-624186,La9B3C6Br5,0.0,0
mp-15789,LiDyS2,1.9344999999999999,0
mp-23318,BiSCl,1.9601000000000002,0
mp-765698,Mn6O11F,0.0,0
mp-569072,La3B(CBr)2,0.0,0
mp-1028434,TeMoWSe3,0.0,0
mp-865301,TmBr3,2.9866,0
mp-20657,Li2BPd3,0.0,0
mp-862735,SmAg2Sn,0.0,0
mp-745173,Na3Cd4P6H10(ClO8)3,0.09190000000000001,0
mp-5816,UBC,0.0,0
mp-768419,La(ClO4)3,3.9271000000000003,0
mp-15649,As2Ir,0.8136999999999999,0
mp-10953,Sc2CdS4,0.9581,0
mp-720835,Mg5H10(C2O9)2,4.4617,0
mp-765639,Sm11Y5O24,3.8606,0
mp-769396,Y2Ge2O7,2.9452000000000003,0
mp-975045,Rb3Cr,0.0,0
mp-1045028,W3Se2ClO8,0.7252,0
mp-27330,La3(OsO5)2,0.0,0
mp-764983,Li3VCr3O8,1.5066000000000002,0
mp-779773,Na5GdO4,1.895,0
mp-571369,Y(BH4)3,4.5766,0
mp-631578,BeSbAs2,0.0,0
mp-634977,Cs3Fe2Cl9,0.5004,0
mp-754227,Li8NbS6,0.0,0
mp-601178,H6C2NO,2.5940999999999996,0
mp-569558,AlAu2,0.0,0
mp-20017,K3Ir(NO2)6,0.0,0
mp-694935,K3LiMg4(Si2O5)6,4.7657,0
mp-568371,Tm(SiRu)2,0.0,0
mp-687255,K5CeFe2(NO2)12,0.0,0
mp-11476,HoIr,0.0,0
mp-1027706,Te2Mo3WS6,0.0,0
mp-37167,U12Rh4Se31,0.0,0
mp-1058,PdF2,0.0,0
mp-505511,CoAsSe,0.39620000000000033,0
mp-41472,Ca5P3HO13,5.1982,0
mp-10234,Sr2BN2F,2.5726,0
mp-312,ThIr5,0.0,0
mp-540660,Nb4As3,0.0,0
mp-1045767,YCr4(CuO4)3,0.10770000000000035,0
mp-7883,Ca(GeAu)2,0.0,0
mp-775232,LiCr4(PO4)3,1.2445999999999993,0
mp-2540,VTc,0.0,0
mp-974962,Rb3Ho,0.0,0
mp-733858,CaH4Se2O7,4.1584,0
mp-779898,Na6NiO4,1.2905999999999997,0
mp-641945,Tb2Sb5,0.0,0
mp-775136,Li4Cr3Co3(TeO8)2,0.0,0
mp-774465,LiMn(SO4)2,0.6386000000000001,0
mp-675283,TlPF6,6.0343,0
mp-27743,BiF5,1.8137999999999999,0
mp-569347,Nd5Sn4,0.0,0
mp-979986,BaCaYb2,0.0,0
mp-583034,Ba2U2O7,0.4186000000000005,0
mp-5012,Li2SiO3,5.0766,0
mp-542024,Sc2GaB2Rh5,0.0,0
mp-779156,CdSeO4,1.94,0
mp-773511,Co5NiO12,1.1427999999999998,0
mp-1541,BeSe,2.6702,0
mp-774946,Li2V3SnO8,0.6480000000000001,0
mp-9846,RbCaSb,1.4979000000000002,0
mp-776688,V2O3,1.2369000000000003,0
mp-29634,V4P2C,0.0,0
mp-605691,La2P3H7O11,4.4891000000000005,0
mp-972272,TmAlAu2,0.0,0
mp-392,U3Sb4,0.0,0
mp-866290,DySnRh2,0.0,0
mp-15359,GdAl3(BO3)4,2.8508999999999998,0
mp-12056,Ba(POs)2,0.0,0
mp-557249,K2UCu3S5,0.0,0
mp-567220,Hf2SbP,0.0,0
mp-14988,K4SnO3,2.1095,0
mp-866684,RbTh3F13,5.810700000000001,0
mp-684959,Sm5Se9,0.0,0
mp-754410,CaTm2O4,3.8132,0
mp-698605,CaGaBiB2O7,1.2817000000000003,0
mp-973986,Ho,0.0,0
mp-560342,Ag4GeO4,0.0,0
mp-761840,Zr5Ti7O24,3.0545999999999998,0
mp-16913,Ag2SeO3,1.7004000000000001,0
mp-13037,TmGe2,0.0,0
mp-28118,AlSbI6,2.2540999999999998,0
mp-768283,UAs2H6O11,2.3704,0
mp-1028483,Te2MoWS2,0.3788,0
mp-1048070,BaCa(WO2)4,0.0,0
mp-780231,Hf2N2O,1.9967000000000006,0
mp-432,NbRu,0.0,0
mp-570066,KZr6CCl15,1.1123,0
mp-756793,Li2Nb4ZnO12,2.8733,0
mp-1046085,MnZnO2,0.0389999999999997,0
mp-39140,Na4Al3Si3HO13,4.0558000000000005,0
mp-560676,CrAgS2,0.0,0
mp-675654,Cd2Bi6O11,0.7775999999999996,0
mp-6995,SrAl12O19,4.4463,0
mp-8947,Sr(BS2)2,2.8242000000000003,0
mp-554498,SiO2,0.5029000000000001,0
mp-1533,Nd3Tl,0.0,0
mp-29151,Li5NCl2,1.9425000000000003,0
mp-5729,YAgSn,0.0,0
mp-549207,Li4CO4,4.1774,0
mp-779522,Ho2P4O13,5.359500000000001,0
mp-780724,LiSbP2O7,3.6412000000000004,0
mp-752686,Sm3TaO7,3.4256,0
mp-7804,HfCo3B2,0.0,0
mp-697753,Li3Cr2(PO4)3,2.8872000000000004,0
mp-1045827,Ba2ZnFe2CuF14,0.7766,0
mp-865520,YCdPd2,0.0,0
mp-27345,Na3BiO4,0.9645999999999999,0
mp-676368,Rb4N2O7,0.6474,0
mp-27251,Bi2TeO6,1.4566999999999997,0
mp-979262,Tl3F,0.0,0
mp-1029517,Li7BiN4,1.113,0
mp-568591,La3CI5,0.2535999999999996,0
mp-973295,Mg5Hg,0.0,0
mp-568690,CdBr2,2.8796,0
mp-555463,RbTh3F13,6.440099999999999,0
mp-19387,CdWO4,3.2878000000000003,0
mp-8882,GaP,1.3002000000000002,0
mp-778661,LiCu5(PO4)2,0.29000000000000004,0
mp-752423,Na2TiO3,3.2114000000000003,0
mp-316,MnV,0.0,0
mp-582826,GdRuC2,0.0,0
mp-1029189,Te6MoW3S2,0.0,0
mp-1043381,Sb2O5,0.3842000000000003,0
mp-1001080,H2CO3,5.8870000000000005,0
mp-776357,Li2SbP(OF3)2,3.7559,0
mp-20467,PuB4,0.0,0
mp-763215,Ni3OF5,0.7583,0
mp-13673,NaSiAu3,0.0,0
mp-135,Li,0.0,0
mp-19419,LiFeO2,1.6720000000000002,0
mp-1048108,BaTi4AlO7,0.2755000000000001,0
mp-755445,Li2CuPO4,1.2365000000000004,0
mp-638749,Te3(PdBr)4,0.6621000000000001,0
mp-510557,CsN3,4.2196,0
mp-15108,RbSnAsO5,2.0723000000000003,0
mp-540921,CsCuF4,1.5224,0
mp-722237,Be(B3H8)2,3.4994,0
mp-780171,HgH10N2Cl4O,2.8621999999999996,0
mp-1018798,MgCuGe,0.0,0
mp-22555,RhS2,0.0,0
mp-14560,Ca2Ta2O6F,0.0,0
mp-557225,Cu6GeWS8,0.8154000000000003,0
mp-999142,SnO,0.0,0
mp-1008524,BeSe,0.4424999999999999,0
mp-1042170,Ca(FeO2)2,0.9824000000000002,0
mp-1048639,Sr3MgFe2S2O5,0.8619999999999997,0
mp-31064,B6H10N,5.657500000000001,0
mp-567462,Sc3RhC4,0.0,0
mp-772672,Sm2V2O7,1.3499000000000003,0
mp-540703,Cs2S,2.0957,0
mp-774426,Nb3Cr(PO4)6,2.6069,0
mp-30442,NpBe13,0.0,0
mp-866311,Bi3BrO4,0.9142999999999999,0
mp-23235,UCl4,0.0,0
mp-29970,Cs3Sb5O14,0.9142999999999999,0
mp-849463,Li11(FeO3)4,0.0,0
mp-555420,NaLiTi3O7,2.6233999999999997,0
mp-697170,MgH6(BrN)2,4.1225,0
mp-765686,Li2Co4OF8,2.2384,0
mp-1008653,AgC,0.0,0
mp-769287,Li2TiS2O,2.2463,0
mp-675634,KBi2F7,4.6755,0
mp-7564,Nb3Te4,0.0,0
mp-9882,Y2Si5Rh3,0.0,0
mp-40886,ZnC2S2(OF)6,5.5243,0
mp-10359,Zr(CoGe)6,0.0,0
mp-9436,La3HfSb5,0.0,0
mp-773177,Na3CoAsCO7,2.6166,0
mp-541811,Cs6K3GaSb4,0.6364999999999998,0
mp-6535,NdAl3(BO3)4,5.1342,0