mp_id,formula,band_gap,fidelity
mp-505025,BaPuO3,0.0,0
mp-559348,BaZr(BO3)2,4.1141,0
mp-17429,KHfPdF7,0.6668,0
mp-568903,TlV5Se8,0.0,0
mp-551873,Ca4Bi2O,0.8137000000000003,0
mp-999502,MoPt,0.0,0
mp-20639,BaMnGe,0.0,0
mp-7950,ThSeO,0.7690000000000001,0
mp-696056,K2H4PtC6S6(N3O)2,1.5465,0
mp-978489,SiPbO3,1.1781000000000006,0
mp-1018732,HoTe2,0.0,0
mp-738726,ZrH16C5N2O3F4,3.7171,0
mp-777623,Na4Mn2C4SO16,0.23270000000000002,0
mp-3858,NaTaO3,2.6172000000000004,0
mp-12722,TbAlPd,0.0,0
mp-756286,La3Ce4O12,0.0,0
mp-631631,Mn5V2Pb3O16,0.5634000000000001,0
mp-973524,HoVB4,0.0,0
mp-7431,Sr(ZnSb)2,0.0,0
mp-12572,CaPd3C,0.0,0
mp-33690,PrSO,1.9171999999999998,0
mp-13285,NaPd3O4,0.0,0
mp-2340,Na2O2,1.7361,0
mp-975361,RbErO3,0.0,0
mp-677670,Na2Al2Si3(HO3)4,1.8232,0
mp-973936,NiI,0.0,0
mp-9575,LiBeSb,0.8731,0
mp-570713,TiAlPt,0.0,0
mp-545506,GdZnPO,0.5424999999999995,0
mp-2082,PIr2,0.0,0
mp-541721,Ba3ErRu2O9,0.0,0
mp-569523,Y2InNi2,0.0,0
mp-770836,Ba5Sc6O14,3.6435000000000004,0
mp-699575,CoSiO3,2.6041,0
mp-776315,Zr2N2O,1.6814999999999998,0
mp-703380,H6CSBrN3,3.4555,0
mp-23218,AsI3,2.2375000000000003,0
mp-6583,Ba2Er(CuO2)4,0.0,0
mp-546082,TmBi2ClO4,1.4059,0
mp-756908,Li3SbO3,3.2818,0
mp-4536,ScNi2Sn,0.0,0
mp-674297,NaNO3,2.5717,0
mp-707924,InPH4NO5,0.2115999999999999,0
mp-675011,CsPF6,7.1409,0
mp-683897,Pr3Sn13Rh4,0.0,0
mp-752453,Sm2TiO5,3.0740999999999996,0
mp-1046850,Sn2O3,0.0,0
mp-1045584,YMo3Se2ClO8,0.8096999999999999,0
mp-10706,ZrRu3C,0.0,0
mp-1016820,MgSnO3,0.8352999999999993,0
mp-11490,Li2ZnSn,0.0,0
mp-603347,TiNi,0.0,0
mp-31301,LiSn4Au3,0.0,0
mp-600208,ZrH36C16(NO4)4,3.7626999999999997,0
mp-1482,Zr2Al3,0.0,0
mp-621994,NdOsO4,0.0,0
mp-18247,Sr3ScRhO6,2.2663999999999995,0
mp-1958,SrTe,1.7623000000000002,0
mp-540169,Co3(PO4)4,0.0,0
mp-864755,LiAcTe2,0.5574000000000003,0
mp-556056,Pr10S14O,1.8415000000000004,0
mp-866189,CeCd2,0.0,0
mp-28795,LaSi2Ru,0.0,0
mp-11018,TlCd(NO2)3,2.1602,0
mp-18625,KPSe6,1.8827999999999998,0
mp-29597,LaBN2,2.1727999999999996,0
mp-1041251,CaSnP2O7,3.7854,0
mp-753803,Cs2CaO2,2.3181000000000003,0
mp-13516,TmAl3(BO3)4,5.6843,0
mp-557387,Sr2TmNbO6,2.8576999999999995,0
mp-2194,TiSe2,0.0,0
mp-1030723,Te2Mo3W(SeS2)2,0.0,0
mp-5167,Sm(NiGe)2,0.0,0
mp-680148,CdI2,2.322,0
mp-773116,La20S29O,1.9417999999999997,0
mp-643547,CoH2SO5,2.8471,0
mp-31046,Ho3CrB7,0.0,0
mp-775262,Fe5O3F7,0.7847999999999997,0
mp-754503,ZrBrO,0.0,0
mp-12364,BaCu2SnSe4,0.4240999999999997,0
mp-703531,CuSiH8(O2F3)2,0.9868,0
mp-560326,Ba5B3CNO9,3.3351,0
mp-22918,PuCl3,0.0,0
mp-26113,LiTi(PO3)4,0.28690000000000015,0
mp-764405,KFeH2S2O9,2.1671,0
mp-30453,DyBiPt,0.0,0
mp-1959,PuO2,0.0,0
mp-9947,SiC,1.8543000000000003,0
mp-28017,Na8Ti5O14,3.5098000000000003,0
mp-989566,Rb2InGaF6,3.2666999999999997,0
mp-30935,B17F27,2.5751,0
mp-625555,H7BrO3,3.5976,0
mp-30018,Rb2ZnI4,3.11,0
mp-1294,YCo2,0.0,0
mp-769595,Li4VCr3O8,1.6083000000000003,0
mp-29314,RbVBr3,0.6053000000000002,0
mp-560947,Ag4S(NO)2,0.6701999999999999,0
mp-865648,Yb2CdPb,0.0,0
mp-1793,Zr3Te,0.0,0
mp-581795,Er2Te4O11,3.2240999999999995,0
mp-556621,RbBiAs6H24C8(S6N)2,1.8746,0
mp-690537,Co2Bi11O20,1.0501000000000005,0
mp-22367,PdPbO2,0.0,0
mp-556665,TlBiP2S7,2.2066,0
mp-24424,BaHBr,3.2114,0
mp-1045353,Mg(CoS2)2,0.0,0
mp-6856,Be3Zn4Si3SO12,3.9654,0
mp-620054,ReC5BrO5,2.3911,0
mp-738618,NdH32C8N4Cl7,4.7293,0
mp-779465,Ti17(NO4)6,0.0,0
mp-8378,Tl3SbS4,1.5515999999999996,0
mp-581990,Bi3Rh,0.0,0
mp-21489,Rb2PbO3,1.2033,0
mp-630836,Nd3(GeRu)2,0.0,0
mp-979043,Tm2CoCu,0.0,0
mp-30328,Ho6FeBi2,0.0,0
mp-780184,Na2Cr4O13,1.9072,0
mp-972493,Sm2MgRu,0.0,0
mp-28251,Ta2Zn3O8,3.5103000000000004,0
mp-567556,CdSb2Se3Br2,1.1147,0
mp-31427,ErInNi,0.0,0
mp-998153,TlGeBr3,0.7685,0
mp-5019,YCo3B2,0.0,0
mp-20462,U3Co4Ge7,0.0,0
mp-510376,CeBRh3,0.0,0
mp-2360,CaGe,0.0,0
mp-567681,CsPbBr3,2.8808,0
mp-12718,LiPrSn,0.0,0
mp-772018,Ba3YI9,2.6721000000000004,0
mp-3779,CrSiTe3,0.5279999999999996,0
mp-1048842,Ba2YW2F11,2.3242,0
mp-554463,Na3LuSi2O7,3.9466000000000006,0
mp-30401,KAu2,0.0,0
mp-14648,NaZnPO4,3.854,0
mp-12813,YbIn2Rh,0.0,0
mp-636946,Fe6Ge5,0.0,0
mp-4454,CeCo3B2,0.0,0
mp-554591,K2Ca2(CO3)3,4.7388,0
mp-559272,K3Sb7(SO3)3,1.8339999999999996,0
mp-1020146,Na2LiB5(PO7)2,5.4471,0
mp-998350,BaZrSe3,0.2012999999999998,0
mp-773061,Ba6Ti7Nb9O42,0.0,0
mp-570964,ZnI2,1.8004,0
mp-600154,K2CuH8(CO3)4,0.7686999999999999,0
mp-981539,Hf2IrPd,0.0,0
mp-35015,NaBiSe2,0.7066000000000003,0
mp-973919,NpOsO3,0.0,0
mp-1002219,TlSb,0.0,0
mp-763490,Li4Ti3Nb3Cr2O16,0.0,0
mp-1030375,Te3MoWSe,0.3362999999999996,0
mp-705042,Co3C10O9,1.6855,0
mp-764771,Li6V5O12,0.6765000000000003,0
mp-685157,IF7,1.4690999999999996,0
mp-28649,NaTi8O13,0.0,0
mp-731160,H3Ru3Rh(CO)12,2.4621,0
mp-27609,U3Fe2Si7,0.0,0
mp-864623,ZnCuAu2,0.0,0
mp-7378,NaCdAs,0.0006999999999997009,0
mp-672684,Zn6Sb5,0.0,0
mp-550111,SmBi2BrO4,1.2782999999999998,0
mp-12651,MgPt,0.0,0
mp-30786,TmMn2,0.0,0
mp-625075,AlHO2,4.4054,0
mp-20516,InPt3,0.0,0
mp-974505,ReTeO3,0.0,0
mp-510232,Nd12Co6Sn,0.0,0
mp-555946,Pb2CO3F2,3.4728,0
mp-1019787,K2NaZn(BO2)5,4.2332,0
mp-774803,TiSb3(PO4)6,0.0,0
mp-543034,Ba3Zn6Si4TeO20,2.6364000000000005,0
mp-1008472,CdSiP2,0.0,0
mp-5347,KAlF4,6.786300000000001,0
mp-20492,ScSiRh,0.0,0
mp-8408,Er(BRh)4,0.0,0
mp-568134,Cs2CdI4,2.8586,0
mp-555604,Na3Dy(Si2O5)3,4.507000000000001,0
mp-778924,ZnSeO4,2.0896,0
mp-9264,NaTeAu,0.0,0
mp-675569,KPF6,7.1053,0
mp-9435,La3ZrSb5,0.0,0
mp-985828,AgBiS2,0.0,0
mp-7168,TbPPt,0.0,0
mp-572441,Cs3AuO2,1.7916,0
mp-156,La,0.0,0
mp-12670,Ho2SO2,3.0336000000000003,0
mp-614951,RbNO3,3.1341,0
mp-861850,Li3CuNi3O8,0.0,0
mp-29978,Sr5Al2F16,6.9343,0
mp-22377,ZrCoSb,0.0,0
mp-569073,LiSn,0.0,0
mp-22304,Cd(InSe2)2,0.9544999999999999,0
mp-631305,Ga2WSe,0.0,0
mp-770733,Li2AlFeO4,3.0507,0
mp-569343,Tb4Mg3Co2,0.0,0
mp-505207,Sm2Co7B3,0.0,0
mp-676909,NaEu2Cl6,0.0,0
mp-975384,RbBiO3,0.0,0
mp-18383,K3NbS4,2.3437,0
mp-558528,La2TiZnO6,2.9182000000000006,0
mp-943469,LiMnHSO5,3.3221,0
mp-8313,Cs2Li2GeO4,3.4743999999999997,0
mp-765768,LiCo2OF3,1.4698000000000002,0
mp-774464,LiCo(SO4)2,0.6606000000000001,0
mp-4425,Ta2Pt3Se8,0.6803000000000003,0
mp-761184,Na2SnO3,2.5075999999999996,0
mp-555552,KNaSO4,5.0709,0
mp-11222,Sm3Al,0.0,0
mp-31909,Ta2Mn3O8,2.3188000000000004,0
mp-703283,Sr2La2Mg(RuO4)3,0.0,0
mp-1018276,CeGa,0.0,0
mp-27094,LiSn2(PO4)3,3.394,0
mp-558582,In(PO3)3,4.372199999999999,0
mp-10054,ZrAs,0.0,0
mp-674343,Ti10Cu7S20,0.0,0
mp-672671,PbI2,2.3308,0
mp-756035,LiTi4O8,0.0,0
mp-761524,MgCoO3,0.0,0
mp-1046709,ZnCrSF5,1.2167,0
mp-541909,Zr2(NiP)3,0.0,0
mp-559889,CSNCl,2.7544999999999997,0
mp-29570,Ca2Si3Ag,0.0,0
mp-1041824,V(WO4)2,1.8724,0
mp-555512,RbCO2,4.245699999999999,0
mp-865030,HfScRu2,0.0,0
mp-15349,Li2GeO3,3.568,0
mp-1018897,PrCoP,0.0,0
mp-6254,Ba2TbNbO6,2.9904,0
mp-13036,MoN,0.0,0
mp-1016999,SrGeO3,0.0,0
mp-541637,Er4I5,0.0,0
mp-27519,SeO3,2.4312,0
mp-567836,K2NaBP2,1.7743,0
mp-1044357,MgTiMn(PO4)3,0.0,0
mp-568397,CuMo3Cl7,1.9195000000000002,0
mp-29542,K4Bi2O5,2.6155,0
mp-27791,SrBe3O4,4.1295,0
mp-5146,Zn(RhO2)2,0.9323999999999999,0
mp-29743,Sr5U3O14,2.0422000000000002,0
mp-1044402,TiVZn(PO4)3,0.07140000000000013,0
mp-1044484,PrZn(AgO3)2,0.0,0
mp-754401,Al2O3,4.2235000000000005,0
mp-12647,TbNbO4,3.5134000000000003,0
mp-777584,Na7NbO6,2.7721999999999998,0
mp-976446,MgMnO3,0.0,0
mp-22980,Li2CoCl4,0.07899999999999996,0
mp-997618,BSb,0.7513000000000005,0
mp-769618,Ni4P2O9,2.2331999999999996,0
mp-21135,Pr3InO,0.0,0
mp-17124,Pr5Ge3,0.0,0
mp-23356,Bi4B2O9,2.8354,0
mp-697027,NaSi2(HO2)3,5.078799999999999,0
mp-16152,Pr2Te2O7,1.5336999999999996,0
mp-973353,SbPt3,0.0,0
mp-600065,SiO2,5.3276,0
mp-1013719,Ba3BiSb,0.0,0
mp-20457,InP,0.0,0
mp-764940,FeOF,0.0,0
mp-9244,LiBC,0.8428000000000004,0
mp-695890,Mg10Si3(H2O9)2,4.950699999999999,0
mp-27786,SbAs2Cl13,1.1627,0
mp-1042755,As2WO7,3.0542999999999996,0
mp-1042609,CoSb2O7,0.7201,0
mp-20917,U2Fe3Ge,0.0,0
mp-767279,Li2DyPCO7,4.784800000000001,0
mp-15951,BeF2,8.3241,0
mp-9454,Sr3MgIrO6,0.0,0
mp-686701,Nd3O2F5,3.9478999999999997,0
mp-505381,NaLi3(H2N)4,2.5675999999999997,0
mp-569442,RbAuCl4,1.9209999999999998,0
mp-24128,ReH4NO4,4.0859000000000005,0
mp-1043800,MgV2(PO5)2,1.7264,0
mp-542553,Cu3As4H18C8Br3(NO2)2,2.8057000000000003,0
mp-1045551,Mg(FeO2)2,0.9243000000000001,0
mp-862929,Li2PmAl,0.0,0
mp-977379,Ho2NiIr,0.0,0
mp-622491,Pb13(Br3O5)2,2.0074000000000005,0
mp-570278,Yb3Ge8,0.0,0
mp-769649,GdTa3O9,2.3374,0
mp-31116,LaScO3,3.8831000000000007,0
mp-1372,Cd3As2,0.0,0
mp-31381,Nb21S8,0.0,0
mp-1041135,HoMg(WO3)2,1.9251999999999994,0
mp-9126,Sr(SbO3)2,2.779,0
mp-13313,ScTlSe2,0.6128,0
mp-504100,CuO2,0.0,0
mp-704810,K2Cr2O7,2.5108,0
mp-27342,Ge5F12,4.3696,0
mp-5354,Er3(Si3Ru)4,0.0,0
mp-556728,TaP2S2Cl5,2.3395,0
mp-558642,Sr3Bi(ClO)3,4.0001,0
mp-775281,Li2MnFe(BO3)2,2.7149,0
mp-23234,TmBi,0.0,0
mp-765656,Na5V7O14,0.22079999999999966,0
mp-10164,NaGaTe2,0.2022999999999997,0
mp-556745,TlCO2,2.8733,0
mp-971836,Zn2NiIr,0.0,0
mp-27911,BiAsO4,3.1586000000000003,0
mp-646297,Hg4Pb2N6O19,1.8181,0
mp-29102,Hg3TeCl4,2.2498,0
mp-757981,Na2SnGe2(HO4)2,2.4185999999999996,0
mp-31413,TbSnAu,0.0,0
mp-1046793,Ti2O3,0.0,0
mp-779888,Li3Mn2Fe(BO3)3,2.6541999999999994,0
mp-770851,Li2TiNi2O5,2.1103,0
mp-1029078,Te2MoW3(Se2S)2,0.0,0
mp-555843,Ag3AsS3,1.6989,0
mp-978845,Sm3Sc,0.0,0
mp-1014373,CrN2,0.0,0
mp-669445,Cu2Bi8Pb6S19,0.5230000000000006,0
mp-11503,MnZn,0.0,0
mp-31029,Nd2Ni5B4,0.0,0
mp-28670,Ba2Bi2O5,2.0078,0
mp-30207,La3GaBr3,0.0,0
mp-752717,La2SiO5,4.5001999999999995,0
mp-733822,ScRe4H8NO20,0.0,0
mp-21594,Ca9Zn4Sb9,0.0,0
mp-6951,RbCdF3,3.1745,0
mp-14038,Rb2NaRhF6,1.9529999999999998,0
mp-864642,HoSnRh2,0.0,0
mp-2379,CoSi2,0.0,0
mp-647604,PuIO,0.0,0
mp-696470,Ag7NO6,0.0,0
mp-5227,Dy(NiP)2,0.0,0
mp-13871,P2Pt5,0.0,0
mp-567359,CdI2,2.3575,0
mp-556097,NaLi2(RuO2)6,0.0,0
mp-999187,SiHgP2,0.0,0
mp-22326,Mg4As6Rh7,0.0,0
mp-684989,W9C4,0.0,0
mp-29000,Na3B5S9,3.5062999999999995,0
mp-1045652,Ti9Zn2O13,0.0,0
mp-774186,LiVP2H5O9,2.2968,0
mp-11973,YbSnRh,0.0,0
mp-1044528,PrMgCr2O6,0.5841000000000003,0
mp-10732,ThTaN3,0.07850000000000001,0
mp-10435,Y(AlSi)2,0.0,0
mp-1025779,Te2Mo2WSe4,0.005700000000000038,0
mp-561068,BiAsO4,2.7541999999999995,0
mp-1046534,MgTiSiO5,3.0119,0
mp-769611,Li4V3CrO8,1.9371999999999998,0
mp-774742,Li3Sc2(PO4)3,4.6105,0
mp-505186,Cs4Pr6C2I13,0.0,0
mp-558628,KLi2BO3,3.999,0
mp-1047722,Zn(WO2)2,0.14789999999999992,0
mp-744268,CsFeH4Cl3O2,3.8219000000000003,0
mp-3782,Nd3Sb5O12,3.1547000000000005,0
mp-1020628,SrGe(PO4)2,4.0919,0
mp-203,NiTe,0.0,0
mp-556021,BaTeO3,3.1676,0
mp-3489,Nd(FeSi)2,0.0,0
mp-22725,TiInCu2,0.0,0
mp-1047526,YMn(WO4)2,2.2291,0
mp-675475,Li2MnBr4,1.4742000000000002,0
mp-27802,BaSn2S3,1.3045,0
mp-753552,Cu4PtO5,0.0,0
mp-775695,Li4Mn3V2Sb3O16,0.46609999999999996,0
mp-997590,La8MgAl7O24,0.0,0
mp-1043433,CaV(GeO3)2,0.4308999999999994,0
mp-20633,PbO2,0.0,0
mp-9746,Ba3NaIrO6,0.0,0
mp-720100,NaH18C9I(NO)3,0.16620000000000001,0
mp-556298,SiH12C2(NF3)2,6.8492,0
mp-23751,CsMgH3,2.6161000000000003,0
mp-704637,Nb12WO33,1.8903999999999999,0
mp-1034881,CsNaMg14O15,1.1264999999999996,0
mp-631686,TaAsPb2,0.0,0
mp-27243,K2PtBr4,1.4677000000000002,0
mp-552008,DyBi2ClO4,1.3622,0
mp-625347,H6N4O9,0.3096,0
mp-26327,Li6Bi3P8O29,0.0,0
mp-1018644,YBPt3,0.0,0
mp-1019888,KNa2BN2,1.8152000000000001,0
mp-754804,La3Ti4O12,0.0,0
mp-985591,Li6PS5Br,2.1276,0
mp-1025690,Te2W3S4,0.0,0
mp-28543,Cs4ZrO4,2.7473,0
mp-1009820,SnC,0.6257000000000001,0
mp-10744,Si3Pt2,0.0,0
mp-631366,TcSnSe,0.0,0
mp-758272,Zr4N2O5,2.277,0
mp-33363,LiYS2,1.9596999999999998,0
mp-780202,Li2FeO2F,1.6583999999999999,0
mp-22414,CuSeO3,0.06260000000000021,0
mp-1019584,CaAl2SiO6,4.605699999999999,0
mp-2450,CaSn,0.0,0
mp-29238,TlAgSe,0.6004,0
mp-27294,Ca3AsBr3,1.6656999999999997,0
mp-975207,RbSmO3,0.0,0
mp-541168,RbTm(PO3)4,5.4715,0
mp-1043013,Cr3O8,0.0,0
mp-1018702,EuZnGe,0.0,0
mp-31256,U(SbO3)2,1.2887000000000004,0
mp-532273,Ba2(Mo2S3)3,0.0,0
mp-21428,Th2In,0.0,0
mp-972410,TmLuPd2,0.0,0
mp-975641,Pr3Cd,0.0,0
mp-653429,Mn7FeCl3O10,0.9382000000000001,0
mp-974950,Rb3Li,0.0,0
mp-765294,SrP2(H2O3)2,6.473000000000001,0
mp-1027171,TeMoWSeS2,0.0,0
mp-764593,Li3Fe3OF7,3.1024000000000003,0
mp-37,Th,0.0,0
mp-23860,SrHCl,4.044700000000001,0
mp-21185,Cd3P2,0.0,0
mp-1409,TiNi3,0.0,0
mp-12662,Re24Mo5,0.0,0
mp-1041620,Zn3Ni3(AsO4)4,2.0665,0
mp-540050,Fe3P3O11,1.5595,0
mp-22258,HfSiMo,0.0,0
mp-775996,TiFe3Cu2(PO4)6,0.0,0
mp-760432,Cu2O3,0.12380000000000013,0
mp-18748,Co3O4,0.0,0
mp-866641,K2Na(H2N)3,2.11,0
mp-735543,MnH6SO6,4.3118,0
mp-850923,TiV(PO4)2,0.1504000000000003,0
mp-976029,Ho3Zr,0.0,0
mp-9197,Li3AsO4,4.1268,0
mp-6070,AgCNO,2.3492,0
mp-1027407,Te4Mo3W(SeS)2,0.0,0
mp-757798,Bi12PO20,0.0,0
mp-569548,CsAuBr3,0.6515000000000001,0
mp-998986,Ti3Si,0.0,0
mp-1045516,Li(NiO2)2,0.1426999999999996,0
mp-973060,MgCr,0.0,0
mp-761911,Li2Cu(PO3)4,0.869,0
mp-554058,K3NdH6(C2O5)3,3.2029,0
mp-643359,Rb2Sn(H2N)6,2.5295,0
mp-555521,SiO2,5.5742,0
mp-22846,In5S4,0.0,0
mp-23287,CuCl,0.4439000000000002,0
mp-770773,Rb2S2O7,4.9853,0
mp-975053,Rb3Ba,0.0,0
mp-24423,SrHBr,3.8289,0
mp-20865,YCuPb,0.0,0
mp-7361,Sr(CoGe)2,0.0,0
mp-23514,BiSI,1.8668999999999998,0
mp-757325,Li3Ti(PO4)2,0.24429999999999996,0
mp-505042,Cu(BiO2)2,0.0,0
mp-19180,VFeMoO7,2.3613999999999997,0
mp-21323,DyGeIr,0.0,0
mp-977138,NaTc3,0.0,0
mp-677017,KRb5Zn4Sn5S17,1.5766999999999998,0
mp-6316,Er4Si2S3O7,2.6296,0
mp-601371,GdSi,0.0,0
mp-767469,Ni9S10,0.0,0
mp-707169,CuH4C3ClO2,2.5729,0
mp-19436,La7Mo7O30,1.1666000000000007,0
mp-775492,Li2MnV3O8,0.9618000000000002,0
mp-559916,Na17Al5O16,2.4421,0
mp-1016938,VHgO3,0.0,0
mp-1045694,Cu9O13,0.0,0
mp-776978,Li4Mn3V3(SbO8)2,0.35230000000000006,0
mp-744184,TbFeGe2O7,2.592,0
mp-767091,LiNbSn3(PO4)6,2.7647,0
mp-23475,Rb2PbCl6,1.254,0
mp-675469,Zr3Sc4O12,3.9744,0
mp-677509,K4N2O5,0.3607,0
mp-706408,NdP3(H4O5)3,4.3711,0
mp-11180,NaC,0.0,0
mp-1018812,NbGeAs,0.0,0
mp-17956,Ca2UO5,2.1350000000000002,0
mp-555237,PrSClO4,4.7016,0
mp-555863,P4PtF12,4.9313,0
mp-560086,Nd4(GeS4)3,1.9952999999999994,0
mp-1027549,Mo3W(Se3S)2,0.7342,0
mp-554475,LaNb2ClO6,2.5637,0
mp-20545,Cu3AsS4,0.0,0
mp-643203,Cu6PbSe2Cl5O8,0.0,0
mp-977408,NbTlO3,0.11379999999999946,0
mp-27199,AuSeBr,0.6295,0
mp-770555,MnPO4,0.5388,0
mp-770531,MnP2O7,0.8516999999999999,0
mp-1016165,LiMn8O16,0.0,0
mp-754515,BaMgGe,0.0,0
mp-755175,Al2O3,5.4924,0
mp-13341,YB4Rh,0.0,0
mp-1041645,AlSb(WO4)2,1.5773000000000001,0
mp-779906,Ca3WO6,3.5523999999999996,0
mp-676306,Dy7(CuTe4)3,0.32319999999999993,0
mp-761057,Sr5Nb4O15,2.8004000000000002,0
mp-762922,Li2VO2F,1.7004000000000001,0
mp-1029236,Te3MoWSe,0.016000000000000014,0
mp-546625,HoBi2BrO4,1.3664999999999994,0
mp-18274,Ba4LiNb3O12,2.5797999999999996,0
mp-832,HoPd,0.0,0
mp-631474,BiSb2Os,0.0,0
mp-684732,Co2S3,0.0,0
mp-23227,CuBr,0.43020000000000014,0
mp-2631,Ba4Al5,0.0,0
mp-21136,Ce3Ni2B2N3,0.0,0
mp-669427,RbCuPO4,0.0,0
mp-758418,Tl16O15F17,0.0,0
mp-770840,LiVGaO4,1.3477000000000001,0
mp-755887,La2S2O,2.4295,0
mp-755511,Y2Hg2O5,1.6972,0
mp-995215,CsSrSiHO4,3.9558999999999997,0
mp-696020,CaRe2H6C(NO5)2,3.3871,0
mp-14208,LiYSi,0.0,0
mp-866110,Ho2OsRu,0.0,0
mp-1043294,CaGe2WO6,2.147,0
mp-29195,LiPO3,5.5611999999999995,0
mp-9745,Ba3NaRuO6,0.5280999999999998,0
mp-491,La3Se4,0.0,0
mp-641804,Yb11(Ce2Se11)2,0.0,0
mp-17103,Sr3Ta6(Si2O13)2,3.0854999999999997,0
mp-976406,MgMnPt2,0.0,0
mp-864877,Hf2CoRe,0.0,0
mp-542802,YCuPbS3,1.5852000000000004,0
mp-5451,Er(FeGe)2,0.0,0
mp-24664,ZnH8C2N4(ClO)2,4.7564,0
mp-631352,NbSnRu,0.0,0
mp-974030,LaRh3,0.0,0
mp-511,PrGe,0.0,0
mp-975255,RbPdO3,0.0,0
mp-645717,Co3TeO6,1.0655000000000006,0
mp-974638,NdErZn2,0.0,0
mp-554245,BaPb2IF5,2.8424,0
mp-769404,YSeO3,1.8121,0
mp-677192,K4PH5S3O16,5.2584,0
mp-761886,Li2Cu2F5,0.0,0
mp-570441,Sm4Ga16Co3,0.0,0
mp-36592,Nd5AgSe8,1.4881000000000002,0
mp-18451,KEr3F10,7.061,0
mp-781664,Li3Ti2(CoO4)2,0.5937999999999999,0
mp-1045605,YCu7O12,0.0,0
mp-553970,CsGeBiS4,2.0122,0
mp-752435,DyTmO3,4.5264999999999995,0
mp-23955,CuH2SeO5,0.5822,0
mp-295,HoAs,0.0,0
mp-989193,SnBrF,1.9947,0
mp-999208,Sc2MnSi,0.0,0
mp-24096,NdH2,0.0,0
mp-562072,Cs3SbO3,3.0838,0
mp-28967,Ba(PdS2)2,0.8922000000000003,0
mp-621348,TiInAu2,0.0,0
mp-630927,Pb4SeBr6,1.9201000000000001,0
mp-973769,Hf6Al16Os7,0.0,0
mp-625826,Zn(HO)2,2.6221,0
mp-974310,In3Ge,0.0,0
mp-715664,V4O9,0.8147,0
mp-29870,Ir(Cl2F3)2,0.0,0
mp-983228,SrEu2Al2O7,0.0,0
mp-600001,SiO2,5.491,0
mp-695308,CaGdTh(PO4)3,2.6080000000000005,0
mp-770969,LiVSn3(PO4)6,1.3638000000000001,0
mp-41473,CsTiNiOF5,3.1081,0
mp-774527,Na2Ti12O25,2.7649,0
mp-568644,K9InSe7,1.8913000000000002,0
mp-784630,Ni2Mo,0.0,0
mp-767328,Li5Fe5Si7O24,2.3729999999999998,0
mp-780499,Li2MnFe(BO3)2,3.0423999999999998,0
mp-997092,AuClO2,0.8944000000000001,0
mp-555823,SiO2,1.2338,0
mp-754459,BCl(OF2)2,1.762,0
mp-12073,Ba(BIr)2,0.0,0
mp-39770,Zr2P3H4NO12,4.2944,0
mp-28255,LaHO,2.4324000000000003,0
mp-22814,U2Ti3Si4,0.0,0
mp-17017,Al12Co4Cu,0.0,0
mp-754191,La2Ti3O9,2.0596,0
mp-22309,CoSe2,0.0,0
mp-21422,YCoC,0.0,0
mp-1027159,MoW(SeS)2,0.6122999999999998,0
mp-762507,Li2CrNiO4,0.0,0
mp-773039,Li2Ti6Zn3O16,2.849,0
mp-753966,Li6CrS4,0.0,0
mp-685968,Ba6Nb5S17,0.0,0
mp-675223,La4Ag2Se7,1.5201000000000002,0
mp-622591,BaTbF6,0.0,0
mp-773491,RbH2SNO3,5.1827,0
mp-1041212,BaMgCuF7,0.6999,0
mp-5792,BaCuSn2,0.0,0
mp-567397,W2C,0.0,0
mp-2650,P4S7,2.7617,0
mp-94,Cd,0.0,0
mp-13816,Cs2NaErF6,6.863899999999999,0
mp-1047825,Be3Fe2(SiO4)3,1.4849,0
mp-642735,Rb2H4Pt,3.2877,0
mp-699447,RbLiH4S2(NO3)2,5.2524999999999995,0
mp-21173,In2CoS4,0.0,0
mp-13473,Sm(MnSi)2,0.0,0
mp-752549,LiAgF2,1.7748,0
mp-4323,Nd(SiPd)2,0.0,0
mp-38950,Ce2Y2O7,1.6482,0
mp-1043855,CaTiBiO5,0.0,0
mp-28339,CaPPt,0.0,0
mp-864993,DyB4Mo,0.2845000000000004,0
mp-767403,Li5SbS,1.1225,0
mp-11365,Ti3Cu,0.0,0
mp-27606,ZrAs2,0.0,0
mp-756394,Li2V2S5,0.14500000000000002,0
mp-769616,Na2CrPCO7,2.8714,0
mp-6772,CaBe2(PO4)2,5.8263,0
mp-867142,Sm2IrPd,0.0,0
mp-10116,UB2Ir3,0.0,0
mp-1042996,Mn4ZnO6,0.0,0
mp-523,CrS,0.0,0
mp-610517,Ag2S,0.9944999999999999,0
mp-31181,Er3Al2,0.0,0
mp-541482,BaCeC2O6F,0.27060000000000084,0
mp-22955,LiIO3,3.6522000000000006,0
mp-3037,UTeO,0.0,0
mp-11504,MnZn3,0.0,0
mp-972494,SmMg3,0.0,0
mp-972908,La3Dy,0.0,0
mp-2714,Pr2Au,0.0,0
mp-1025778,Te2Mo2W(SeS)2,0.0,0
mp-11393,Nb3Ga2,0.0,0
mp-776115,Li2NbFe3O8,1.2802,0
mp-707508,Na2H5RuN5O12,2.0896999999999997,0
mp-617312,Sm3Si2Ni,0.0,0
mp-767036,Li2Co(CO3)2,2.4529,0
mp-10443,YbSiAu,0.0,0
mp-1041004,MgCr2O4,0.9102000000000001,0
mp-998890,Cu,0.0,0
mp-776849,Li4V3Sn3(SbO8)2,0.9329000000000001,0
mp-997100,SrAgO2,0.0,0
mp-15750,TaAgP4O13,2.0967000000000002,0
mp-13352,RbUCuS3,0.0,0
mp-780113,LiMnP2HO7,4.0102,0
mp-16947,LiAlGeO4,3.1826,0
mp-862727,Pm2ZnPb,0.0,0
mp-27246,LuSBr,2.9978,0
mp-31380,SmPd,0.0,0
mp-12661,Cd3In,0.0,0
mp-11373,DyTlPd,0.0,0
mp-774316,Mn6OF11,0.5436,0
mp-772045,SnSb3(PO4)4,0.0,0
mp-18164,Tb3S3N,1.4081000000000001,0
mp-581115,K3Nb2Ag3S8,1.9433999999999998,0
mp-6907,SrSi,0.0,0
mp-8667,CeB2C,0.0,0
mp-20738,FeSi2,0.0,0
mp-573743,Ce3CI5,0.0,0
mp-23556,Rb3Mn2Cl7,1.2397000000000002,0
mp-23454,CsAgBr2,2.0574,0
mp-553891,Mg2BP3(H3O7)2,5.1936,0
mp-1040803,LaCrMoO6,1.512,0
mp-10342,Tm6ReO12,0.05689999999999973,0
mp-27400,RbCdBr3,2.7524,0
mp-30092,TiCl4,3.4576,0
mp-37620,LiMnO2,0.0,0
mp-16609,Si3Os2,0.7195,0
mp-972387,Sr2MgGe2O7,3.6039,0
mp-1044544,BaCaMn4O8,0.0,0
mp-22266,GdB6,0.0,0
mp-28073,UCuO4,0.0,0
mp-1047387,YCr(WO4)2,2.0197,0
mp-862966,PmTlAg2,0.0,0
mp-569684,Zr(TeCl6)2,3.0734,0
mp-27774,NClO6,1.4162,0
mp-680334,LaSb(SBr)2,2.1022000000000003,0
mp-743619,CoH6C2S2N2O3,2.2358000000000002,0
mp-1029446,CaGeN2,0.0,0
mp-1048889,MgCr2O4,1.0611000000000002,0
mp-1320,CeSe2,0.0,0
mp-570668,LaSe2,0.2386999999999997,0
mp-754629,WN2,1.0066,0
mp-778460,Li3Bi(PO4)2,4.2483,0
mp-18197,Na2BeGeO4,3.7017,0
mp-862780,K2InP2S7,1.8701999999999999,0
mp-546125,ScAsO4,3.5491,0
mp-549970,Ba2ZnReO6,0.0,0
mp-999388,NbC,0.0,0
mp-626552,Ca(H8O5)2,3.8139,0
mp-1047930,BaZnWF7,3.1929,0
mp-9273,K3Sb2Au3,1.1063,0
mp-29983,Cs6Cl4O,1.984,0
mp-6495,BaEr2ZnO5,3.3171,0
mp-976829,NaDy3,0.0,0
mp-28327,LiGaBr3,2.956,0
mp-772090,Li4Ti9O20,3.1247,0
mp-759790,Ag2Hg5,0.0,0
mp-5577,Ce(GeRh)2,0.0,0
mp-869,TaAl3,0.0,0
mp-556018,LiBH15C5NO3,4.0222999999999995,0
mp-760683,Li4Cu(PO3)6,0.8013000000000001,0
mp-8351,NaAlSiO4,4.4806,0
mp-10032,Ge2Os,0.0,0
mp-5696,La2Cu2O5,0.0,0