mp_id,formula,band_gap,fidelity
mp-1048563,Mg2Nb2CuO8,0.12870000000000026,0
mp-555528,Ca2Th(Si2O5)4,4.9887999999999995,0
mp-570492,CdI2,2.4084000000000003,0
mp-10288,LaCuTeS,0.4802999999999997,0
mp-972659,SmCoSi3,0.0,0
mp-13220,PrMg2Cu9,0.0,0
mp-9834,NdGaO3,0.0,0
mp-2206,LuCo2,0.0,0
mp-766108,Ba3LiTi5(SbO7)3,2.3975,0
mp-1046744,Mg2Nb2CoO8,2.6316,0
mp-20456,Co3Se4,0.0,0
mp-736272,HgH16C6(N2Cl)2,3.7758000000000003,0
mp-13069,Er(AlGe)2,0.0,0
mp-510613,MnNiAs,0.0,0
mp-974747,MnCu3,0.0,0
mp-570752,H2,6.593999999999999,0
mp-117,Sn,0.0,0
mp-28828,Li6FeCl8,0.6532999999999998,0
mp-736386,VH24C4N4Cl7,0.14590000000000003,0
mp-747,BaPt2,0.0,0
mp-20836,Nd(NiAs)2,0.0,0
mp-975019,Rb3Cd,0.0,0
mp-769294,Rb8SnO6,1.071,0
mp-569707,BiSeBr,1.6912,0
mp-1042703,CaCu3(SbO3)4,0.0,0
mp-754537,LiLuO2,4.7738,0
mp-1045711,Ba2ZnCuSb2F14,0.9026000000000001,0
mp-1018700,EuO2,0.0,0
mp-27123,ErSeF,2.112,0
mp-10485,BaLiSb,0.6946999999999997,0
mp-764250,Li4Nb3Fe2Ni3O16,0.4647999999999999,0
mp-29568,RuS3Cl8,1.8601999999999999,0
mp-771150,Na6Cu2P(CO4)4,0.0,0
mp-556328,AsS,2.0317,0
mp-1018018,PdN,0.0,0
mp-5364,YbBO3,0.0,0
mp-11494,LuPb3,0.0,0
mp-22859,HgI,1.6513,0
mp-782642,LiMn2(BO3)2,0.4797,0
mp-505692,Np5Ge4,0.0,0
mp-540951,Na2Sr(PO3)4,5.3329,0
mp-310,NpCo2,0.0,0
mp-8643,Os,0.0,0
mp-7597,NbSe2,0.0,0
mp-775284,Li2Mn3NiO8,1.5294,0
mp-777896,Li2V3NiO8,1.6475999999999997,0
mp-1047456,YMo(WO4)2,1.6296,0
mp-768147,Dy(ClO4)3,4.9878,0
mp-18780,K2WO4,4.384399999999999,0
mp-1026023,Mo2W(SeS2)2,0.6362999999999999,0
mp-23918,NaGaH4,4.7345,0
mp-1026980,Mo2Se3S,0.7385999999999999,0
mp-560547,KCrF3,1.849,0
mp-12923,SrPIr,0.0,0
mp-11360,ScGaCu2,0.0,0
mp-556853,MnS,0.0,0
mp-31467,Ga3Pd7,0.0,0
mp-754249,Li3ZrNb(TeO6)2,1.8758999999999997,0
mp-769025,K2Mg2O3,2.923,0
mp-676637,Na2UI6,0.0,0
mp-446,Cr3Pt,0.0,0
mp-1014214,C3N,0.0,0
mp-863365,Li2Sn(PO3)4,3.8057999999999996,0
mp-994911,S,3.3265000000000002,0
mp-754840,TaAsO4,2.6966,0
mp-11677,Sr3(SiAs2)2,0.9178999999999999,0
mp-1029379,Te2MoWSeS,0.1192000000000002,0
mp-977574,HoSbPd2,0.0,0
mp-27650,RbB10H9,4.4008,0
mp-1019324,TbTe2,0.0,0
mp-698527,SbH3C2(O2F3)2,3.1772,0
mp-1009048,KAgO,0.0,0
mp-540416,MnP2O7,0.9913,0
mp-776110,SiSnO3,2.5265999999999993,0
mp-560675,K6Cu(SiO4)2,0.5072000000000001,0
mp-16209,K3La(PS4)2,2.4497999999999998,0
mp-36395,La2CdS4,1.7847999999999997,0
mp-11544,Yb2Pb,0.0,0
mp-766467,LiCuS,1.2911000000000001,0
mp-675744,Yb4Zr3O12,0.0,0
mp-1018817,NdSe2,0.0,0
mp-560216,Cs2GeP4O13,4.1237,0
mp-1890,BMo,0.0,0
mp-756703,CdSeO4,1.5661999999999998,0
mp-765406,Nd2NiO4,0.6717999999999997,0
mp-722865,H8Se2N2O5,3.6460000000000004,0
mp-5784,Na2GeO3,2.9873,0
mp-3223,ThB2Ru3,0.0,0
mp-3106,Np(SiRu)2,0.0,0
mp-1044888,LaMgVCrO6,1.3730000000000002,0
mp-1091,SmAu6,0.0,0
mp-1045647,Li(CoO2)4,0.0,0
mp-971875,UGa,0.0,0
mp-560327,Na2Sn2C3(O2F)3,2.4736000000000002,0
mp-1020058,Mg(NO3)2,3.4662,0
mp-760470,Ce2UO6,0.0,0
mp-554517,NaMnF4,2.0519,0
mp-638035,SiO2,0.0,0
mp-677467,Rb5Te3H4NCl18,2.6113999999999997,0
mp-677234,Ce8Gd2O19,1.6528,0
mp-24235,H6CSN4,3.424,0
mp-570157,ZrBrN,1.6957999999999998,0
mp-776463,Ba3(YI6)2,2.6277,0
mp-769488,Na5Fe2P2(CO7)2,1.3887999999999998,0
mp-765677,Li6V5SbO12,0.8316999999999997,0
mp-546910,CaSnO3,0.0,0
mp-8954,TaSe2,0.0,0
mp-973908,PaFe3,0.0,0
mp-625051,NaHO,3.3548999999999998,0
mp-1016849,CdRuO3,0.0,0
mp-777450,Ti5Mn(PO4)6,0.0,0
mp-17394,NaYGeO4,3.6470000000000002,0
mp-998560,InSnCl3,2.0808999999999997,0
mp-771185,K2Ge2O5,2.9349999999999996,0
mp-38605,Sn(BiTe2)2,0.42110000000000003,0
mp-561132,K2Ge2PbS6,2.1955999999999998,0
mp-754302,Dy2Zr2O7,2.6097000000000006,0
mp-11925,RbTa(CuSe2)2,1.7333,0
mp-771691,CaPbI6,1.7803000000000002,0
mp-696666,H4NClO2,2.7843,0
mp-758841,LiCu2F7,0.0,0
mp-570301,AgBr,0.7,0
mp-754920,BaYF5,6.618500000000001,0
mp-8372,CaSi2,0.0,0
mp-1042039,MgCrP2O7,3.0375,0
mp-559388,U8FeS17,0.0,0
mp-5489,LuTaO4,4.3138,0
mp-28974,TiF4,4.166,0
mp-861483,Pr2IrPd,0.0,0
mp-1029730,Ca4HfN4,1.2158000000000002,0
mp-626558,Ti3H2O7,2.6827,0
mp-10821,RbC,3.5275,0
mp-560631,KUSi2O7,0.5872000000000002,0
mp-3040,TbCo3B2,0.0,0
mp-684815,Ba4La2Ti3Nb2O18,2.1891000000000003,0
mp-677734,K4PH5Se3O16,3.6779,0
mp-763959,Li3Mn3FeO8,0.4658000000000002,0
mp-995204,H4C6O,2.8404,0
mp-770413,LaHoO3,4.024699999999999,0
mp-20522,TmAgPb,0.0,0
mp-540619,K3SnTe3,1.2297000000000002,0
mp-510073,RbLi(H2N)2,2.3503,0
mp-9069,K2NaAlAs2,1.026,0
mp-570677,Ba5Al5Sn,0.0,0
mp-7624,Er2Si2O7,4.913,0
mp-5730,Ba(BO2)2,4.7852,0
mp-36007,Ba(NdSe2)2,1.5998999999999999,0
mp-650929,Na2Ti9O19,2.1886,0
mp-672333,PbCSNCl,3.1401,0
mp-28048,KTlBr4,1.8089,0
mp-1003319,CaMn8O16,0.11609999999999987,0
mp-29665,Sb3Au,0.0,0
mp-1041176,ZnCu3P3O13,0.0,0
mp-571623,Al2BiSe4,2.2379,0
mp-16929,Pr3Si6N11,2.9903999999999993,0
mp-775978,Na4Sb2C4SO16,0.42920000000000025,0
mp-540772,Er2Ni12P7,0.0,0
mp-28192,AuSCl5,1.7517999999999998,0
mp-28776,K2UBr5,0.11680000000000001,0
mp-32525,Li2V(PO4)2,2.6334,0
mp-554826,Pr3Si2ClO8,5.1502,0
mp-540877,La3InS6,1.1154000000000002,0
mp-20480,Er(Fe2Ge)2,0.0,0
mp-643004,SrMg2FeH8,1.7242999999999997,0
mp-23049,KMnCl3,1.3655,0
mp-772878,Ba2SrI6,3.64,0
mp-707735,MgH12(I4O3)2,1.3114,0
mp-778751,Mn6O5F7,0.0,0
mp-1044226,MgTiNi(PO4)3,0.0,0
mp-554781,Tb3CuSnS7,1.5553,0
mp-775340,Li2Cr(Si2O5)3,0.7241000000000002,0
mp-20262,Pu3Pb,0.0,0
mp-1018139,HoNiBi,0.19380000000000042,0
mp-1047668,Mg(NiO2)2,0.0,0
mp-19957,LaGeBO5,4.0105,0
mp-570377,Sn3As4,0.391,0
mp-647822,Pd2S9N4,1.3486999999999998,0
mp-769617,Li2VCrO4,1.2694,0
mp-8335,Ba2ZrO4,2.9787999999999997,0
mp-571637,K2Cd2Te3,1.3224,0
mp-555728,H6C3SN3O2F3,2.1838,0
mp-30624,Dy11Sn10,0.0,0
mp-849606,Cr4OF11,0.9244000000000001,0
mp-568161,Nd(NiSb)2,0.0,0
mp-757256,ZnH4(IO4)2,3.2826,0
mp-768296,Ti3Bi2(PO4)6,2.3485,0
mp-644271,LiHS,3.4983999999999997,0
mp-983559,CePmZn2,0.0,0
mp-23253,RbBi2,0.0,0
mp-1377,ThCu2,0.0,0
mp-755716,HoHO2,4.1921,0
mp-8249,TlPS3,1.7362000000000002,0
mp-510751,CuO,0.013100000000000112,0
mp-675893,HoPaO4,3.2058999999999997,0
mp-760421,Zr6BI12,0.0,0
mp-555682,Sn(SeO3)2,3.0747,0
mp-677520,KBa6Zn4(GaO3)7,2.4589,0
mp-15656,Si4Ir3,0.0,0
mp-2665,PrRu2,0.0,0
mp-15777,Zn(GaTe2)2,1.0156999999999998,0
mp-5528,Ni3(SnS)2,0.0,0
mp-755654,NaSb3O8,0.2807000000000004,0
mp-980052,Yb3In,0.0,0
mp-3147,Er(SiAu)2,0.0,0
mp-37478,La5AgS8,1.5947000000000005,0
mp-767412,Li3(CoS2)4,0.0,0
mp-1027119,TeMoWSe2S,0.0,0
mp-1019083,ReN2,0.0,0
mp-556771,Nd2Si2O7,5.0399,0
mp-4725,Nd(GePd)2,0.0,0
mp-781011,V3OF11,1.8989,0
mp-10039,Pr3AlC,0.0,0
mp-774257,Ni3Sn(PO4)4,0.0,0
mp-554542,Mg3B(OF)3,5.4165,0
mp-35311,ZnCrF6,1.5468000000000002,0
mp-766979,Sn4P2O9,2.9112,0
mp-756272,LaDyO3,4.3626,0
mp-31496,Li2Sn2Au,0.0,0
mp-1048596,YFe3Se2ClO8,2.5517,0
mp-1014230,TiZn,0.0,0
mp-1048197,BaSn4O7,0.06150000000000011,0
mp-778832,Li3Mn4(BO3)4,0.47809999999999997,0
mp-568441,MgH2,2.0783,0
mp-27428,KBrO4,3.0759,0
mp-673069,Sb(PO3)4,0.0,0
mp-559590,PrGeBO5,3.9886999999999997,0
mp-18913,Ba3Cr2O8,0.0,0
mp-2214,TmMg2,0.0,0
mp-504662,SbClO,3.0971,0
mp-699445,K2P2H2O7,4.9118,0
mp-19358,SmMn2O5,1.0884999999999998,0
mp-1047602,Sb(WO4)2,0.0,0
mp-1041720,Mg(FeO2)2,1.0187000000000004,0
mp-3056,NaTlO2,0.6210999999999998,0
mp-17751,Y5Ge3,0.0,0
mp-11010,KNdTe4,0.1499000000000006,0
mp-971926,YErRu2,0.0,0
mp-770681,LiCr10O15,0.20350000000000001,0
mp-21163,SiPt3,0.0,0
mp-20012,InSb,0.0,0
mp-23074,BiOF,3.1226000000000003,0
mp-20778,Dy2Be2GeO7,4.4623,0
mp-5190,ZnSnAs2,0.008700000000000152,0
mp-10577,Sr5NbN5,1.1591,0
mp-977176,NaTcO3,0.0,0
mp-757890,LiSiBiO4,3.4191000000000003,0
mp-549158,InCuO2,0.24040000000000017,0
mp-560657,RbLa9(IrO6)4,0.0,0
mp-3038,Al2HgSe4,1.4253999999999998,0
mp-4835,LaCuSi,0.0,0
mp-504814,Sb2Pb2S5,1.0418000000000003,0
mp-621592,YPbAu,0.0,0
mp-4756,ZnSnSb2,0.0008999999999996788,0
mp-5001,Li3BN2,3.3675999999999995,0
mp-1022733,Ba2NbFeO6,1.6905999999999994,0
mp-676422,Ta2O5,3.2084,0
mp-557176,Ba5B4(O5F)2,4.5127,0
mp-707459,Na2ZnP2(H5O6)2,4.4395,0
mp-28768,Na4SnSe4,1.4604,0
mp-1431,MnSi,0.0,0
mp-24359,CaAs(HO)7,4.1423,0
mp-3608,LuAgSn,0.0,0
mp-8256,ZnPtF6,2.08,0
mp-1045897,Mg2Ni9O13,0.0,0
mp-865898,TiZnCo2,0.0,0
mp-27832,Tl2SnCl6,2.4814,0
mp-6331,Na2Y2B2O7,4.3727,0
mp-30866,Rh3W,0.0,0
mp-35777,Mg(InTe2)2,0.6792000000000002,0
mp-976258,EuPtO3,0.0,0
mp-541244,CeVO4,0.3341000000000003,0
mp-643243,Cs2H6Pt,3.9085,0
mp-581696,CsLu2Cu3Se5,1.2562000000000002,0
mp-698633,K3Sc(HO)6,2.0949,0
mp-685066,US2,0.0,0
mp-7480,RbLuO2,3.6930999999999994,0
mp-5909,Zn2GeO4,1.9751999999999998,0
mp-15821,LiNdGe,0.0,0
mp-23090,La3Si2S8I,2.516,0
mp-753497,Li3TiS3,0.0,0
mp-1020027,Li4P2O7,5.581300000000001,0
mp-1003639,Ca3Mn4O8,0.4100999999999999,0
mp-775122,LiLaNb4O12,1.2726,0
mp-29068,Hf5FeTe3,0.0,0
mp-697022,Ca6Si2H6O13,3.4957,0
mp-690546,TiNiO3,2.2505,0
mp-654139,Nd2Ti4O11,3.1437000000000004,0
mp-2947,SmB2Rh3,0.0,0
mp-6799,LiCa4(BN2)3,2.1934,0
mp-645555,KUVO6,1.9565,0
mp-721586,BaSi2(H3O4)2,5.0579,0
mp-1018698,EuHgPb,0.0,0
mp-10844,Te2Ir,0.0,0
mp-631544,BaSiB,0.0,0
mp-553374,Cs4Sb2O5,2.5747,0
mp-16433,Ca2Ga2O5,2.1663,0
mp-15782,KPrS2,2.2658,0
mp-22792,MnTePd,0.0,0
mp-570290,MnTlCl3,1.1483999999999996,0
mp-554822,CsSb(PO4)2,2.9469,0
mp-677074,PbO,0.0,0
mp-7084,SrCaSi,0.4237000000000002,0
mp-22905,LiCl,6.25,0
mp-752692,K2SnO2,1.5380999999999998,0
mp-776205,Hf2N2O,1.3758,0
mp-31073,Na3B7O12,4.9219,0
mp-23093,Sr2NdBiO6,1.7018,0
mp-32642,Lu2S3,2.0514,0
mp-1030466,TeMoWSe3,0.0,0
mp-14307,Mg(ScS2)2,1.5651000000000002,0
mp-20822,TbMnSi,0.0,0
mp-758168,NaZn2HSe2O7,3.7643999999999997,0
mp-675328,Ce4GeS3,0.0,0
mp-571358,Yb3Pt4,0.0,0
mp-3167,Hg2GeSe4,0.42799999999999994,0
mp-973300,Lu3Ga,0.0,0
mp-680599,VCo3,0.0,0
mp-557296,Sr2MnSbO6,0.06510000000000016,0
mp-28995,Cu4SiP8,1.2078000000000007,0
mp-976930,Ni3As,0.0,0
mp-30409,Mn2Au,0.0,0
mp-756448,LaMgI5,1.9817,0
mp-556120,RbTl(SO4)2,1.9822000000000002,0
mp-998973,TiFeCoSb,0.0,0
mp-2294,Al3Ir,0.0,0
mp-998413,CsSeBr3,1.1982,0
mp-705900,Hf3Tl10Mo12PbO48,2.8319,0
mp-30775,PrMg2,0.0,0
mp-997090,PdAuO2,0.0,0
mp-29491,HS8N,2.6047000000000002,0
mp-559407,NaGdH2S2O9,2.9139000000000004,0
mp-676573,Nb2Pb3O8,0.0461999999999998,0
mp-1019601,CeZr7O16,2.1228000000000002,0
mp-31385,Er5Sn3,0.0,0
mp-557842,AlPO4,5.4534,0
mp-28277,K2PrI5,3.031,0
mp-11441,Hf2Ga3,0.0,0
mp-1040835,LaCrReO6,0.0,0
mp-5646,NdSnAu,0.0,0
mp-571641,PrCdPd,0.0,0
mp-29481,Rb2WBr6,0.0,0
mp-13132,LaN,0.0,0
mp-850062,LiNiO2,0.0,0
mp-19924,USeS,0.0,0
mp-30773,MgNi2Sb,0.0,0
mp-759424,Li7Bi2P7O24,4.462400000000001,0
mp-1585,V3Co,0.0,0
mp-31466,Er5Bi3,0.0,0
mp-1526,TiHg,0.0,0
mp-1937,YbCu,0.0,0
mp-1746,MgF2,6.7193,0
mp-865928,Ti2TcPt,0.0,0
mp-684052,LiSn6P7O24,2.5803000000000003,0
mp-12985,PrCo2B2C,0.0,0
mp-975425,RbAsO3,0.0,0
mp-11202,Y6FeSb2,0.0,0
mp-865920,YbPmZn2,0.0,0
mp-1025689,Mo(WS3)2,1.2904999999999998,0
mp-637242,RbC2N3,4.5772,0
mp-11944,LiYbGe2,0.0,0
mp-973245,KLu,0.0,0
mp-30151,CuAuSe4,0.0,0
mp-1020663,Si(GeN2)2,1.6596000000000002,0
mp-569931,Pr(NiP)2,0.0,0
mp-769511,NaLiV2O6,3.0701,0
mp-20412,InAs,0.0,0
mp-766423,Li8BiS6,0.0,0
mp-23949,RbCaH3,3.2736,0
mp-7559,YNi4B,0.0,0
mp-777394,Sn2N2O,0.7619000000000007,0
mp-755512,Sm3NbO7,2.843,0
mp-35822,Li4SiO4,5.0854,0
mp-567780,RbSn2Br5,2.3888999999999996,0
mp-4584,Tl3BO3,1.303,0
mp-23051,NbSeI,0.0,0
mp-561179,Ba2CuIO2,2.2554999999999996,0
mp-755659,DyHO2,4.5215,0
mp-1045442,Mg(FeS2)2,0.0,0
mp-31815,Li2Fe(PO4)2,0.0,0
mp-638086,K3Th2Cu3S7,1.4308999999999994,0
mp-1047948,BaCaMnF7,1.7915999999999999,0
mp-556717,Tl3Ga9S13O2,2.2072,0
mp-679979,La9B3C6I5,0.0,0
mp-30411,Mn9Au31,0.0,0
mp-629560,Fe3C9Se2O9,1.811,0
mp-776225,Hf2N2O,1.9416000000000002,0
mp-1019547,BaLi2Mg(PO4)2,5.638199999999999,0
mp-14,Se,0.9987999999999999,0
mp-1019586,CaAl2SiO6,4.5200000000000005,0
mp-1019733,Eu(NO3)3,0.0,0
mp-28962,Ti4Bi2O11,2.0404000000000004,0
mp-1044699,Mg(SbO2)2,0.5551000000000004,0
mp-555451,Sr3U(Te2O7)2,1.9828000000000006,0
mp-35907,La5TlTe8,1.0812999999999997,0
mp-3042,K2SiF6,7.2224,0
mp-1048225,Bi3Se2ClO8,0.7314999999999999,0
mp-979288,Ta2NbRh,0.0,0
mp-735545,Rb2FeH2Cl5O,2.1756,0
mp-555194,SiHg3(SF3)2,2.7818,0
mp-555438,Ba3AlF9,6.4405,0
mp-680695,Ce3B2(ClO2)3,0.0,0
mp-568077,TaFe2,0.0,0
mp-782666,Mn2O3F,0.0,0
mp-866605,Ce3SiAgS7,0.0,0
mp-757119,LiCu2F5,0.0702,0
mp-974949,Rb3Ir,0.11590000000000011,0
mp-644385,HCN,6.7888,0
mp-768695,Ho2Ti2O7,2.9749000000000003,0
mp-571553,SnH18C6Br3N,3.4837,0
mp-1138,LiF,8.7161,0
mp-6962,Ba(AsPd)2,0.0,0
mp-8392,Sc3Si3Ni,0.0,0
mp-559469,CaH6C2O7,3.7118,0
mp-558332,K5Au(IO)2,1.8748000000000002,0
mp-867910,LaAgAu2,0.0,0
mp-607841,Tl(CO)2,3.3303,0
mp-3446,SrTm2O4,3.8126999999999995,0
mp-22451,MoPRu,0.0,0
mp-5852,Pr(SiOs)2,0.0,0
mp-567404,YbIn4Pd,0.0,0
mp-996945,Cs2TlInH6,0.0,0
mp-707373,MgH12(ClO5)2,3.202,0
mp-36100,Ca(SmS2)2,2.0833999999999997,0
mp-11851,ErCoSn,0.0,0
mp-5676,MnSbPt,0.0,0
mp-771826,BaTl2O4,0.0679000000000003,0
mp-775922,SrNb3NO7,1.5305999999999997,0
mp-1018823,NiPRh,0.0,0
mp-20347,NdSnPt,0.0,0
mp-12903,YAgTe2,0.8989000000000003,0
mp-980752,Sm3Co,0.0,0
mp-707285,CuH16(IO8)2,0.5665,0
mp-20273,Ca3PbO,0.0,0
mp-546790,LaCuTeO,1.1965999999999992,0
mp-18722,Cs2LiMnO4,1.818,0
mp-974059,LiDyIn2,0.0,0
mp-1025948,Mo2W(SeS2)2,0.6349999999999998,0
mp-756624,Ba2SrI6,3.9756,0
mp-560145,BaBi4(ClO3)2,0.0,0
mp-546672,LaBi2IO4,1.2324000000000002,0
mp-978847,SrGaGeH,0.30779999999999985,0
mp-1028748,Te2Mo(WSe2)3,0.0,0
mp-555022,LuSeO3F,4.2845,0
mp-6795,Ba5Ho8Zn4O21,3.3644000000000003,0
mp-11251,Mg3Au,0.0,0
mp-865341,Tm2InOs,0.0,0
mp-1003313,Li2Mn3O6,0.016499999999999737,0
mp-1046751,Nb2Zn2FeO8,2.291,0
mp-767407,Li5SbS,0.7834000000000003,0
mp-6290,NaInP2O7,3.7446,0
mp-703350,La2(GeO3)3,3.0791000000000004,0
mp-30469,TlBi2,0.0,0
mp-13064,Dy2O3,4.1995000000000005,0
mp-769578,Li4V2C4SO16,0.6354,0
mp-29039,P3RuO9,0.0,0
mp-37307,Na(WO3)2,0.0023999999999997357,0
mp-828,SiNi3,0.0,0
mp-1045884,Ba2CaCuMo2F14,0.7659,0
mp-756869,K2TbO3,0.0,0
mp-18787,Ba2Mn3(SbO)2,0.0,0
mp-690555,V2NO,0.0,0
mp-5925,Nd2MgNi2,0.0,0
mp-409,NaS,0.8685,0
mp-753975,Dy2(BiO2)7,0.0,0
mp-570451,Nb2Te3,0.0,0
mp-556173,ZnAs2C6S12N12(OF2)6,2.2259,0
mp-1047170,Mg2MoWO6,2.0027,0
mp-10698,Ba(GeRh)2,0.0,0
mp-10336,BaYCuTe3,0.5362999999999998,0
mp-13055,Ba2LaTaO6,3.6207999999999996,0
mp-772240,Li2MnH4(SO5)2,4.4361999999999995,0
mp-568730,Ge4Te7As2,0.2182000000000004,0
mp-777622,LiFeF3,3.3346,0
mp-560879,CS2(NCl)3,2.6841,0
mp-1046253,Ba2Tl2Bi3O10,0.0,0
mp-546920,Li(CO)2,2.2184,0
mp-559373,Ge4PbO9,3.4876000000000005,0
mp-781596,LiFeOF2,1.7247999999999999,0
mp-21706,GdAl3(PbO4)2,2.9479,0
mp-22424,Na2SO4,0.0,0
mp-631538,NiBiB,0.0,0
mp-675458,La2Te4Pb,1.2492,0
mp-865466,TiH8(NF3)2,4.6829,0
mp-1532,NpNi2,0.0,0
mp-505121,Na2Hg3S4,1.3273000000000001,0
mp-16889,Na6Sn2Se7,1.4178999999999997,0
mp-12237,HoP5O14,5.233099999999999,0
mp-13920,Ba(ZnSn)2,0.0,0
mp-24817,LiBeH3,4.8344000000000005,0
mp-571195,ZnTe,1.069,0
mp-1047036,Ca(AgO2)2,0.9283000000000001,0
mp-581026,Mn(C2N3)2,1.5869,0
mp-1001833,InBi,0.0,0
mp-999355,NbN,0.0,0
mp-770199,Li2CoSn3(PO4)6,0.0,0
mp-861607,KNaNdTaO5,3.5102,0
mp-18725,YCrO3,2.4831000000000003,0
mp-580364,HoCu5,0.0,0
mp-4341,Pr(P3Ru)4,0.0,0
mp-29835,K2SnTe3,0.9613,0
mp-13510,Ho4In(NiGe2)2,0.0,0
mp-14019,NiB,0.0,0
mp-9206,CsAg5Te3,0.020099999999999785,0
mp-713,KAs,0.6695,0
mp-4434,TbAlO3,5.598200000000001,0
mp-38307,MgAl2O4,4.5367999999999995,0
mp-754388,BaSrI4,3.2802000000000002,0
mp-28229,Bi4Te3,0.0,0
mp-31187,TiAlFe2,0.0,0
mp-1018723,HoCo3Cu2,0.0,0
mp-23185,XeF4,2.8225,0
mp-638033,SiO2,0.21039999999999992,0
mp-763212,Li2VO2F,1.0705,0
mp-772883,Ba6Sr11I34,3.3618,0
mp-153,Mg,0.0,0
mp-861666,LiRu2W,0.0,0
mp-1042915,MgCu(GeO3)2,0.02289999999999992,0
mp-17816,Na5AsO5,1.4127000000000003,0
mp-31347,YInRh,0.0,0
mp-558165,SbC(Cl2O)2,2.1067,0
mp-555299,SrC4S4N2(O2F3)4,6.240200000000001,0
mp-488,CuSe,0.0,0
mp-3666,LiTaO3,3.7003,0
mp-5723,ZrAlNi,0.0,0
mp-1048194,Ba2W3O8,0.0,0
mp-4008,ZnGeAs2,0.0118999999999998,0
mp-27668,Mg2Ga5,0.0,0
mp-11446,Tb,0.0,0
mp-623751,Tb3Ni,0.0,0
mp-510219,Sn2Ru,0.0,0
mp-29101,Ce8SbPd24,0.0,0
mp-568681,Mg8BPt4,0.0,0
mp-976106,Hf3Tl,0.0,0
mp-17499,K7Nb(SO4)6,2.8575,0
mp-672677,Ti6Co16Si7,0.0,0
mp-695140,Ba4NbP4(O9F)2,0.0,0
mp-18761,K3V3O8,1.8032,0
mp-29638,BiTePt,0.0,0
mp-24182,Rb2ZnH12(SeO7)2,3.6833,0
mp-18652,Sr3HoRhO6,2.1668,0
mp-27501,Cs2ThCl6,4.6918999999999995,0
mp-777760,TbCeO4,0.0,0
mp-13983,ZnPdF6,1.5893000000000002,0
mp-3943,BaTi2O5,1.8301000000000003,0
mp-770514,Li5MnO4,1.3683999999999998,0
mp-28853,LaAuO3,1.7976999999999999,0
mp-1029938,K3W2N5,2.1497,0
mp-772390,LiAlFeO4,0.0,0
mp-680146,CdI2,2.3356,0
mp-1045422,Mg(CoS2)2,0.08230000000000004,0
mp-18774,NaFeP2O7,2.4732000000000003,0
mp-22558,TiSi,0.0,0
mp-14753,Li7TaN4,3.3394999999999997,0
mp-1042631,YTi(WO4)2,1.7108000000000003,0
mp-1026350,Te4W3Se2,0.3434999999999997,0
mp-556541,InSb2S4Cl,1.5135,0
mp-5186,ScNiSn,0.0,0
mp-766179,LiSi3BiO8,3.4775,0
mp-19052,K3VO4,3.6294,0
mp-4249,Hg(CO2)2,2.6357,0
mp-554174,Ca2P2H8O11,4.854299999999999,0
mp-770173,Mg2Mn3O8,0.7802000000000002,0
mp-568358,Si2H15C5N,4.1646,0
mp-558312,Li2O2,1.6379,0
mp-38417,Ba(CeS2)2,0.0,0
mp-770844,V3(PO4)2,1.7588999999999997,0
mp-28001,Lu(BRh)4,0.0,0
mp-1046287,ZnWO2,0.0,0
mp-629430,SrLi2CrN3,0.9497,0
mp-31755,Ta2FeO6,2.3539000000000003,0
mp-7599,BeO,7.0845,0
mp-560936,Rb2NaCrF6,3.9409,0
mp-772535,LiNb13O33,1.707,0
mp-1044537,CaV3(P2O7)2,2.6224999999999996,0
mp-31184,AlFe2,0.0,0
mp-7243,LiSnPd2,0.0,0
mp-22665,AgAsPbS3,1.3834,0
mp-1048425,BaYW4O7,0.0,0
mp-971669,FeSb3,0.0,0
mp-1019723,CsZn4(BO3)3,2.8217,0
mp-4179,YbPO4,0.0,0
mp-30100,Li2B2Se5,1.6310999999999996,0
mp-27474,PaBr4,0.0411999999999999,0
mp-685928,Rb5Tc3S7,1.1198,0
mp-18776,CaCoP2O7,2.7472000000000003,0
mp-570798,Er3(P3Pd10)2,0.0,0
mp-689967,LiMn(PO3)4,1.6151,0
mp-226,FeS2,0.4562000000000008,0
mp-644424,Sr2CoO3,0.5811,0
mp-567558,CsAgCl2,2.2017,0
mp-637213,La2GeI2,0.4049000000000005,0
mp-763259,Mn3(PO4)2,2.8392,0
mp-510522,Zr5Sn3,0.0,0
mp-1017577,Ho3AlN,0.0,0
mp-1043673,Ca(SnO2)4,0.20669999999999966,0
mp-972623,SmHgAu2,0.0,0
mp-546011,YZnAsO,1.2061000000000002,0
mp-772150,Li2Ti13O22,0.0,0
mp-2675,MgNi2,0.0,0
mp-13675,CdPd3O4,0.0,0
mp-761034,Hf5N5O2,0.0,0
mp-768114,Li6Ti9O20,0.0,0
mp-29599,Re3(SBr)7,1.3261,0
mp-864617,NdI3,2.0128,0
mp-975652,PrTe2,0.0,0
mp-978833,SmYIn2,0.0,0
mp-770474,La4Ti3O12,1.8730000000000002,0
mp-769218,Ni(PS3)2,0.35089999999999977,0
mp-19963,TiFe2Sn,0.049599999999999866,0
mp-31411,Th(Al2Cr)4,0.0,0
mp-30532,Tl2ZnI4,2.9359,0
mp-698033,KAl2P2H8O12F,4.9791,0
mp-5439,Th2Ru6C5,0.0,0
mp-8670,Ca3CrN3,0.0,0
mp-1003549,LiMn16O32,0.0,0
mp-1045538,AlV2O4,1.0993000000000004,0
mp-4337,Dy(GeRh)2,0.0,0
mp-1041316,BaCaAgF7,0.5108999999999999,0
mp-559435,CoF3,0.0,0
mp-5853,LiSi2N3,5.0143,0
mp-9077,Nd2Be2SiO7,5.0243,0
mp-557488,S,2.4187,0
mp-864879,NbC2NCl8,2.3142,0
mp-708089,H30S2O21,0.8025,0
mp-721194,RbB5(H2O3)4,0.0,0
mp-567756,La2CN3Cl,1.8792,0
mp-28390,CS3N4,1.9381,0
mp-20814,Dy(BC)2,0.0,0
mp-648006,Tb4In20Ni11,0.0,0
mp-763359,LiCr2CoO6,0.4902000000000002,0
mp-1044891,MgMn(GeO3)2,1.3963,0
mp-555390,TcO3F,2.4444999999999997,0
mp-580155,U(Cr3P2)2,0.0,0
mp-1020145,Na2Ge(S2O7)3,4.003,0
mp-571341,InHg6As4Cl7,1.3825,0
mp-644707,La5MnOs3O16,0.0,0
mp-2306,LaMg3,0.0,0
mp-1043414,MgTi2(PO5)2,2.4653,0
mp-559587,CuSb2BrO3,0.7827999999999999,0
mp-2483,DyMn2,0.0,0
mp-31480,Ca3(GaPd)2,0.0,0
mp-1023938,Te2Mo,1.0502,0
mp-636614,YPb2,0.0,0
mp-558427,Na6Mg(SO4)4,5.2539,0
mp-1018886,PdO2,0.0,0
mp-556132,SiO2,4.3926,0
mp-560839,C4SeO2,1.4248999999999998,0
mp-3303,Ce(AlGa)2,0.0,0
mp-984717,BeNi3,0.0,0
mp-5759,Tb2Fe14B,0.0,0
mp-623089,CaCdPb,0.0,0
mp-675930,In3AsSe3,0.09980000000000011,0
mp-24662,Rb4Mg3H10,3.4271,0
mp-30627,DyZn5,0.0,0
mp-569066,Cs2PdI6,0.19279999999999986,0
mp-2808,ZrRh,0.0,0
mp-1041887,MgSi2NiO6,3.7430000000000003,0
mp-780402,Sc2Ti2O7,2.8328,0
mp-554824,La3RuO7,0.5690999999999997,0
mp-17154,Rb3SbS4,2.0227999999999997,0
mp-4086,La2Sn2O7,2.6590999999999996,0
mp-12953,TmAgTe2,0.6664000000000003,0
mp-28742,Ca4Ni3C5,0.0,0
mp-672307,NdInPt,0.0,0
mp-10721,Ti2C,0.0,0
mp-1465,Nd5Ge3,0.0,0
mp-23319,RbVCl3,0.0,0
mp-1043869,MgSb3O7,0.0,0
mp-30051,Si3CCl7,4.005,0
mp-4026,KCrS2,1.1611999999999996,0
mp-567736,TaPbSe2,0.0,0
mp-31328,MnInPd2,0.0,0
mp-631531,NbBW,0.0,0
mp-756914,Er2B4O9,5.6886,0
mp-8584,NaErSe2,1.9258,0
mp-556061,CsSb2F11,4.4228,0
mp-9785,BaHo2PdO5,1.9437999999999995,0
mp-6430,Ba2YReO6,0.0,0