mp_id,formula,band_gap,fidelity
mp-557635,Sb2TeSeF10,1.5148,0
mp-531882,U7(Pd3S4)8,0.0,0
mp-11345,ZrP,0.0,0
mp-769374,Li2B5SbO10,3.3989999999999996,0
mp-581609,BiP(PbO2)4,2.5484,0
mp-1027818,TeMo2Se3,0.0,0
mp-706688,VH8C10N3Cl4,1.5295999999999998,0
mp-864600,TbSnRh2,0.0,0
mp-568917,LaInAg2,0.0,0
mp-95,Sr,0.0,0
mp-891956,Ca10V6O25,2.3500000000000005,0
mp-776418,CaGd2O4,2.9964,0
mp-20950,Nd(SiPt)2,0.0,0
mp-859156,Li4Ni7(OF7)2,2.7778,0
mp-761916,NaH4Au(Br2O)2,0.9742000000000001,0
mp-530165,Li13Ti22O48,0.0,0
mp-20378,CaInAu,0.0,0
mp-26341,LiSbP2O7,3.9593,0
mp-600015,SiO2,5.6014,0
mp-9925,Ca2Sb,0.0,0
mp-756861,LiLa4Ti3O12,0.0,0
mp-30652,Sc3(MnGa3)2,0.0,0
mp-2629,Ce7O12,0.0,0
mp-2232,CS2,3.4275,0
mp-769096,MnP4,0.0,0
mp-764034,Na(FeO2)2,0.0,0
mp-23452,Sn3BrF5,3.0281000000000002,0
mp-637052,Hf3(MnGa3)2,0.0,0
mp-622620,ErNiSn,0.0,0
mp-16945,Sr3(GaN2)2,1.5856000000000003,0
mp-643718,BaMgH4,2.3007,0
mp-978911,TbYHg2,0.0,0
mp-16960,AlPt2,0.0,0
mp-861588,Pr2CuRu,0.0,0
mp-863011,Na3H7Os,2.6299,0
mp-8606,BaSbPt,0.0,0
mp-30474,Ca11Ga7,0.0,0
mp-758362,Li3Ti2(PO4)3,0.00140000000000029,0
mp-697657,CaP4(HO6)2,5.637,0
mp-972062,YbTmHg2,0.0,0
mp-756170,Sr3LiTa4(O6F)2,0.0,0
mp-20199,PPbS3,2.2992,0
mp-768865,Lu2GeO5,3.42,0
mp-998917,K2O2,2.0833999999999997,0
mp-556392,ZnS,2.0362,0
mp-721252,Li10Sn(PSe6)2,1.3659000000000001,0
mp-975786,Li2TmTl,0.0,0
mp-649754,Os3C9Se2O9,2.3869000000000002,0
mp-556894,Rb2SbAuS4,1.5357999999999998,0
mp-21757,Eu3Al5O12,0.0,0
mp-542557,CsScAs2(HO4)2,3.6849,0
mp-4402,La(CoP)2,0.0,0
mp-1044744,Pr(MoO3)2,0.5323000000000002,0
mp-639512,SiO2,5.6163,0
mp-5025,Zr2CS,0.0,0
mp-554107,K2Na4Ge2O7,2.9946,0
mp-557473,K5LiGe2O7,3.1502,0
mp-1026020,Te2Mo3S4,0.0,0
mp-14002,Ba4GeAs4,0.8233999999999999,0
mp-761254,Li5CuP3O11,0.34350000000000014,0
mp-556185,RbNaTiO3,3.4598999999999998,0
mp-675152,NdPb8F19,3.5795999999999997,0
mp-557908,AsH5COF6,5.032500000000001,0
mp-616190,Tl2(ReSe2)3,0.9673999999999996,0
mp-8357,UTe3,0.0,0
mp-752402,BaSrI4,3.1007,0
mp-557510,Cu3TeS3Cl,0.7738999999999994,0
mp-13926,Rb2NaYF6,6.4704,0
mp-723059,Li3Nd2H6(N3O10)3,3.5123,0
mp-996995,MnAgO2,0.28949999999999987,0
mp-554842,Cs5Si3AgO9,2.6818,0
mp-570443,Tl2CN2,1.8920000000000003,0
mp-760590,Li5(CuO2)3,0.0,0
mp-1002183,TcB,0.0,0
mp-21639,KTiF4,0.0,0
mp-6592,K2Pt(NO2)4,2.1193999999999997,0
mp-23098,ReNClF5,1.7905000000000002,0
mp-1027567,Te2Mo3WS6,0.0,0
mp-31412,PrSnAu,0.0,0
mp-20551,GaCo2Ni,0.0,0
mp-19400,Sr2NiWO6,3.3599,0
mp-569273,Mg44Ir7,0.0,0
mp-27340,ReCl4,0.0,0
mp-558378,Pd3S,0.0,0
mp-636212,GaFe2Co,0.0,0
mp-978509,Si3Ru,0.0,0
mp-11584,Lu8Te,0.0,0
mp-4283,LaSi2Pt,0.0,0
mp-13545,BaIrF6,0.0,0
mp-36053,SiPN3,3.7652,0
mp-556178,BaAl2(GeO4)2,3.936,0
mp-30056,CsCaBr3,4.3924,0
mp-1924,TbSi,0.0,0
mp-721182,PH11(NO2)2,5.3405,0
mp-17207,Tl4GeS4,1.9009999999999998,0
mp-3141,ErInRh,0.0,0
mp-31703,CrOF3,2.1075,0
mp-775863,Zr2N2O,1.6522999999999994,0
mp-1042090,Mg(NiO2)2,0.0508999999999995,0
mp-1046513,Ba2Mn3Tl2Zn2O10,0.0,0
mp-505145,Ag3BiO3,1.5250000000000004,0
mp-46,Ti,0.0,0
mp-2098,CeOs2,0.0,0
mp-27642,PaBr5,1.9592,0
mp-603254,PH9AuC3S3Cl,2.8803,0
mp-776082,Ti3NbO8,0.0,0
mp-619126,Ba2TlCuHgO5,0.0,0
mp-653243,Ru4C14O13,1.9679,0
mp-529,SmMg2,0.0,0
mp-19345,ErMn2O5,1.0779,0
mp-773016,Lu2P4O13,5.344,0
mp-1046772,Sr2YGaW2O7,0.3960999999999997,0
mp-23717,Ca2MgP2(H2O5)2,5.3863,0
mp-697677,CeMg2H7,0.0,0
mp-975528,NdDyTl2,0.0,0
mp-10796,HgSeO4,0.8439999999999999,0
mp-24272,CaH20C4S4(NO6)2,5.6987,0
mp-771487,Na5Mn2P(CO4)4,0.005900000000000016,0
mp-16522,Al2Pd,0.0,0
mp-22863,CuI,1.5721999999999996,0
mp-555276,Sm2US5,0.0,0
mp-861929,Pu2BiAu,0.0,0
mp-18022,P4Pb3O13,3.9358,0
mp-753,ZnSb,0.04099999999999948,0
mp-2769,HoMn2,0.0,0
mp-557812,Ti3O,0.0,0
mp-1025664,Te4Mo2WSe2,0.35189999999999966,0
mp-849409,V4(OF3)3,1.2401,0
mp-753548,Rb6Ti2O7,2.1781,0
mp-570470,CeSmI4,0.0,0
mp-978652,SiHg3,0.0,0
mp-18378,K3AlTe3,2.117,0
mp-754177,CaGd2O4,2.4804,0
mp-571353,BaSn5,0.0,0
mp-753983,In2HgO4,0.14620000000000033,0
mp-1009219,HfN2,0.0,0
mp-17832,RbBaPO4,4.995900000000001,0
mp-557044,Yb(ClO4)3,0.0,0
mp-765709,Li5Ti2Fe3O10,1.4627,0
mp-582357,Eu(FeSi)2,0.0,0
mp-29250,Li6VCl8,1.5371000000000001,0
mp-864835,Hf2CoIr,0.0,0
mp-756134,ZrSeO,0.5998000000000001,0
mp-762265,Li3V5O10,1.1776,0
mp-1002117,TcN,0.0,0
mp-998159,TlFeF3,0.0,0
mp-11668,Sm2(Zn2Ge)3,0.0,0
mp-4630,Li2RuO3,0.0,0
mp-20801,LiIn2Pd,0.0,0
mp-580161,Na3InBi2,0.06889999999999974,0
mp-560082,Ho2Ge2O7,3.7385,0
mp-1046176,Sr2Cu2SbO7,0.0,0
mp-862745,Sr2LiPt,0.0,0
mp-763318,LiCo2(BO3)2,0.8924000000000001,0
mp-6296,K6Cd4Sn3Se13,1.4058,0
mp-649213,Th6FeBr15,0.0,0
mp-766308,BaCaI4,3.0008000000000004,0
mp-23533,K2OsCl6,0.0,0
mp-1016931,VZnO3,0.0,0
mp-18781,CrCdO4,2.2881,0
mp-541558,Sc4Ge6Rh7,0.0,0
mp-705336,Li2Co3(P2O7)2,2.7885,0
mp-770389,V2(SO4)3,0.0,0
mp-20394,EuPb,0.0,0
mp-757946,Li2SnP2O7,3.1648,0
mp-769210,Tb2Pb2O7,1.0930999999999997,0
mp-8182,As3Rh,0.0,0
mp-36029,ErAgS2,0.6766999999999999,0
mp-5455,K6Ti2O7,3.4489,0
mp-19449,NaVCdO4,3.0267,0
mp-773252,Li2(NiO2)3,0.4941,0
mp-774407,Hg2W2O7,2.1528,0
mp-754157,AlInO3,2.1581,0
mp-1029773,Ca2TaN3,1.9592000000000005,0
mp-20193,DyCo3B2,0.0,0
mp-643697,Rb3MnH5,1.6939000000000002,0
mp-648469,SbP2SN3Cl10,1.8197999999999999,0
mp-753943,Li2FeS2,0.0,0
mp-1336,PdO,0.0,0
mp-699558,K10Zr3Cd(MoO4)12,3.3376,0
mp-21907,NbSiAs,0.0,0
mp-1048633,Ba2Ca3Tl2V4O12,0.0,0
mp-865890,Li2CaIn,0.0,0
mp-28256,V2Se9,0.7130000000000001,0
mp-673119,LiSn2P3O10,3.7549,0
mp-645279,C68OF20,1.4309,0
mp-775211,Ho2WO6,3.6157,0
mp-17474,ThCo9Si2,0.0,0
mp-696776,BaAl3P2(HO7)2,0.0,0
mp-866312,CaReH4ClO6,3.1858,0
mp-20627,YbGa5Co,0.0,0
mp-31492,CeGaNi,0.0,0
mp-723094,B5H12C2NO10,5.6913,0
mp-974425,Re3Si,0.0,0
mp-672229,Mn3ZnC,0.0,0
mp-267,Te2Ru,0.2829999999999995,0
mp-975848,PrNdMg2,0.0,0
mp-626241,Sr(H8O5)2,3.4424,0
mp-999072,Ti2AlZn,0.0,0
mp-865855,Ac2SiPd,0.0,0
mp-973165,Lu3U,0.0,0
mp-27546,CaClF,5.6701999999999995,0
mp-4961,Na2HgO2,1.6474000000000002,0
mp-10311,ZrVGe,0.0,0
mp-1042895,Ca2Co3O8,0.04310000000000014,0
mp-19251,RbLiCrO4,2.976,0
mp-554812,CuB2(PbO3)2,0.4309000000000003,0
mp-769626,Li4Mn2Nb3Fe3O16,0.19570000000000043,0
mp-675623,CsClO4,5.9201,0
mp-676910,Mg3(Mo3Se4)4,0.0,0
mp-4789,PrRhO3,0.6013000000000002,0
mp-778602,Ba3GeO5,2.9101999999999997,0
mp-675464,CdIn2O4,0.000700000000000145,0
mp-746778,MnHC3O4,2.7733,0
mp-676210,LiTiCl3,0.0,0
mp-15355,U(BRu)4,0.0,0
mp-2265,TbCo2,0.0,0
mp-9895,Tc2P3,0.0,0
mp-19838,Pu(CrSi)2,0.0,0
mp-7983,Mg2SiO4,3.5361000000000002,0
mp-1702,LaRh2,0.0,0
mp-760484,TmBO3,4.5014,0
mp-560717,Ag2CO3,0.7414000000000003,0
mp-1027376,MoW(SeS)2,0.6365000000000003,0
mp-24007,Rb2HBrO,3.3099,0
mp-540477,Li2Mn(PO3)4,3.8816000000000006,0
mp-558281,SrCrF4,3.6107,0
mp-5732,La2Si2O7,4.781899999999999,0
mp-779517,Sr3Hf2O7,3.6592,0
mp-1285,PtO2,0.6417999999999999,0
mp-1026349,Te2W3Se4,0.23000000000000043,0
mp-975216,RbReO3,0.0,0
mp-561305,BaZnSiO4,3.5871000000000004,0
mp-541695,W(CO)6,2.9753,0
mp-22345,TiCdO3,0.0,0
mp-998367,YReN3,0.0,0
mp-30598,SrCuSn2,0.0,0
mp-1016842,TiHgO3,0.0,0
mp-1020018,Li5B(SO4)4,6.108199999999999,0
mp-1045901,Ba2MgCuMo2F14,0.8327999999999999,0
mp-561455,Ba8Sb6S17,1.3935,0
mp-541053,SiI2,2.2811,0
mp-779026,Li4MnCr2Fe3(PO4)6,1.1417000000000002,0
mp-677067,Ca3Al4Si8(ClO12)2,3.6088000000000005,0
mp-972424,TbYbPt2,0.0,0
mp-775127,Li4Fe3O8,0.0,0
mp-471,CdAs2,0.1511,0
mp-694012,Ca3YAl3B4O15,4.4422,0
mp-11398,Ga3Ni5,0.0,0
mp-30309,Y2Au5F21,1.7812,0
mp-1042338,Zn2SbWO6,0.0,0
mp-6908,YMgZn,0.0,0
mp-23121,Sr5P3ClO12,5.0783,0
mp-574339,Y2Ni7,0.0,0
mp-37722,KBH4,6.0978,0
mp-626506,NaHO,2.7883999999999998,0
mp-755420,SrSm2O4,2.8981000000000003,0
mp-768152,NaZrPCO7,4.0075,0
mp-647004,TiBrO,0.0,0
mp-862744,Pm2ZnIr,0.0,0
mp-562473,LiSn2(PO4)3,3.1282,0
mp-865907,LiZn3,0.0,0
mp-542974,K3Nd(PS4)2,2.4434,0
mp-569945,Tb2Ni17,0.0,0
mp-764510,FeOF,0.5734000000000004,0
mp-5597,Ca(FeP)2,0.0,0
mp-27773,H5IO6,2.3706,0
mp-769307,Ca4Ta2O9,4.500500000000001,0
mp-705333,LiMo(PO4)2,2.6869,0
mp-772617,Zn(NO3)2,3.406,0
mp-1029448,Li5OsN4,0.0,0
mp-300,YbPt3,0.0,0
mp-12807,KAlO2,3.7537999999999996,0
mp-771059,Li4Nb2Co3Sn3O16,1.6597999999999997,0
mp-30650,Mg2Ga,0.0,0
mp-1009008,LaTe,0.0,0
mp-761481,Li2FePO5,2.3612,0
mp-755302,TiNbO4,0.0,0
mp-603,Be2Ag,0.0,0
mp-850910,Na6V2As(CO4)4,0.0,0
mp-768427,Ba2YBr7,3.9627,0
mp-449,Fe5Si3,0.0,0
mp-638206,P3CN4Cl7,3.7592999999999996,0
mp-759946,Sc16O15,0.0,0
mp-557367,K2CaAs2O7,3.513,0
mp-31034,ThF4,6.5408,0
mp-20336,USn3,0.0,0
mp-1029652,Y3Si6N11,3.0474999999999994,0
mp-30945,Ga2PdBr8,1.6095000000000002,0
mp-643912,Ca5Ge3H,0.0,0
mp-743742,Fe6H12Pb(SO7)4,1.2239,0
mp-18678,Nd2Ge5Rh3,0.0,0
mp-19921,PbO,1.4694999999999991,0
mp-1443,Sn3F8,3.1589000000000005,0
mp-22004,Yb3TlC,0.0,0
mp-3651,Nd(SiRh)2,0.0,0
mp-21001,Y(GeRu)2,0.0,0
mp-20646,Sm(MnGe)2,0.0,0
mp-9732,BaNaP,0.8555000000000001,0
mp-770805,Li6Hf2O7,4.2889,0
mp-998157,RbSnBr3,0.6151000000000002,0
mp-8432,CaCuP,0.0,0
mp-7339,BaSiO3,4.5344999999999995,0
mp-1045779,CaMn(PO3)4,4.3902,0
mp-27828,Cs2TiCl6,2.2291,0
mp-974313,NaMg3,0.0,0
mp-559059,K3Nd(AsS4)2,1.6896,0
mp-975206,RbSbO3,0.0,0
mp-647575,K2ZnCl4,4.5367,0
mp-769582,Sr5Ta4O15,3.3459000000000003,0
mp-3915,BaHgO2,2.2727,0
mp-3747,Ti3AlC2,0.0,0
mp-675334,LiTi2O4,0.0,0
mp-1020164,Na3LiP2O7,4.8511,0
mp-3944,ZrAlNi2,0.0,0
mp-17461,NaTiP2O7,0.06989999999999963,0
mp-756645,Li5Ti3O8,0.0,0
mp-684104,LiSb2P5O16,3.2950999999999997,0
mp-976331,LiLuO3,0.0,0
mp-19378,CrAgO2,1.6634000000000007,0
mp-755047,Ti3N2O3,1.7108000000000003,0
mp-775861,Zr2N2O,1.6810000000000005,0
mp-27267,ReP4,0.7559000000000005,0
mp-1003920,Mn2HO4,0.9188999999999998,0
mp-28349,H2NO2,3.3779,0
mp-772408,Ba4Tm6O13,2.529,0
mp-558135,Ti4S8Cl6O,1.6012,0
mp-19941,As2PbS4,0.7649999999999997,0
mp-17651,HoPtF7,2.2952,0
mp-1996,NdIr3,0.0,0
mp-753173,HoIO,3.4575,0
mp-5558,NaReO4,3.6151999999999997,0
mp-600045,SiO2,5.4237,0
mp-22385,Np(Al2Fe)4,0.0,0
mp-760817,Li2AgF4,0.0,0
mp-829,AlPd,0.0,0
mp-559996,Al(PO3)3,5.512499999999999,0
mp-864783,Yb2SbAu,0.009999999999999787,0
mp-972380,Tb3ReB7,0.0,0
mp-571607,CdI2,2.3546,0
mp-1018103,ZrAu2,0.0,0
mp-777464,Li4Ti5Cr3O16,0.0,0
mp-768821,Li2Bi2B2O7,2.9226,0
mp-865168,Be3Ni,0.0,0
mp-568081,H32WC8N4Cl7,1.6809,0
mp-16061,Sr6Sb6S17,1.7409,0
mp-30834,SrSn3Pd,0.0,0
mp-2894,ScSnAu,0.12450000000000028,0
mp-16481,TiAlAu,0.0,0
mp-763305,Li8FeO6,0.0,0
mp-541916,Rb2Ag(AsSe2)3,1.3497,0
mp-643427,MnH2SO5,3.7724,0
mp-4561,UAl3Pd2,0.0,0
mp-754126,CuAuO2,0.0,0
mp-863420,Rb4H4C3O10,4.0445,0
mp-675369,NaNO2,0.0291,0
mp-1028456,TeWSe,0.2897999999999996,0
mp-865897,Li2AcIn,0.0,0
mp-867749,CaBiO3,0.0798000000000001,0
mp-867361,CeTlAu2,0.0,0
mp-775941,Cr2Ni3Sb(PO4)6,0.0,0
mp-762266,Li2Cu2F7,0.0,0
mp-30245,Mg3H4O5,3.5652,0
mp-555750,Nd2SnS5,0.0,0
mp-672707,SrZn13,0.0,0
mp-999204,ScAl3,0.0,0
mp-1047261,Sr2YV2O7,0.0,0
mp-1047958,BaCaWF7,3.9032999999999998,0
mp-7060,LaZnPO,0.6563000000000008,0
mp-336,SmCo2,0.0,0
mp-29636,KMnBr3,1.7869,0
mp-530146,MgAl2O4,4.1229,0
mp-23357,Sr2Bi2O5,2.2554000000000003,0
mp-6044,Sr6B(PO4)5,4.8124,0
mp-30660,Ga5Pd,0.0,0
mp-554605,Rb2SbCl3F2,3.0561,0
mp-1029610,Ca3CoN3,0.0,0
mp-677151,YbTiCdSbO7,0.0,0
mp-30103,AuF5,0.7890000000000001,0
mp-757372,Sr5U5O19,0.0,0
mp-1040818,LaMnCrO6,0.4925999999999995,0
mp-999197,AgN,0.0,0
mp-8890,Cs(SbS2)2,1.4413,0
mp-768171,Li8SbS6,0.0,0
mp-772663,MnH4(SO5)2,0.7624,0
mp-1019581,CaS3O10,4.9224000000000006,0
mp-12571,HfBeSi,0.0,0
mp-981387,Hg3Bi,0.0,0
mp-505564,Bi2Se4Cl7,1.0179,0
mp-676497,Ce2UTe4,0.0,0
mp-774368,Li6Mn5Fe(BO3)6,2.6076,0
mp-5373,Y2Ti2O7,2.718,0
mp-1148,Th2Pd,0.0,0
mp-691043,Ba10Pr5Nb(Sn2O15)2,0.0,0
mp-5857,MgAl2O4,4.9766,0
mp-1001571,CaFeO3,0.0,0
mp-703567,TiH12N2(O2F3)2,3.8263,0
mp-2563,CeSe,0.0,0
mp-559219,Zr(PO3)4,4.1158,0
mp-754368,NaSbO2,1.4609999999999999,0
mp-20447,U3Co2Ge7,0.0,0
mp-771981,BaLa2Br8,3.4682,0
mp-1018708,GdTlZn,0.0,0
mp-754494,BaLaBr5,2.9074,0
mp-1007776,TlP,0.0,0
mp-1046140,Ta2Zn2NiO8,3.4713,0
mp-554706,AsSe(ClF2)3,3.7138999999999998,0
mp-7543,LiVS2,0.0,0
mp-1044823,Ti2P2O9,1.9456000000000002,0
mp-561050,BaCaSiO4,4.3673,0
mp-19296,SrVSi2O7,2.8073,0
mp-706301,HClO4,4.8339,0
mp-971720,ZnGa3,0.0,0
mp-41191,Na3Ti2P2O10F,3.1952,0
mp-780859,Ti3V2Ni(PO4)6,0.9772000000000003,0
mp-1043308,ZnCr(GeO3)2,0.0,0
mp-2442,ErAu,0.0,0
mp-4077,Cd(CN)2,6.0857,0
mp-29880,Sm2SCl4,3.5036999999999994,0
mp-780409,La4Al2O9,4.382099999999999,0
mp-23267,BeCl2,6.3324,0
mp-21991,Rh17S15,0.0,0
mp-18832,K2VO2F3,2.9836,0
mp-768149,DyInO3,1.9870999999999999,0
mp-617266,SrNb4O6,0.0,0
mp-607848,La(In2Ni)3,0.0,0
mp-684746,LiAlSi2H2O7,2.8643,0
mp-29688,Ge3Cl8,3.2077999999999998,0
mp-11431,CaGa3Ni2,0.0,0
mp-773510,TiV2CrO10,1.3891,0
mp-1008224,CrCo2Si,0.0,0
mp-560217,K2Al2B2O7,4.5949,0
mp-1042880,Zn2Ni3O8,0.38859999999999983,0
mp-754213,Li2ZrCuO4,0.0,0
mp-767740,V(PO3)3,2.3138,0
mp-3392,Ba(TlHg)2,0.0,0
mp-21494,UCoSn,0.0,0
mp-11893,K2Pd(CN)4,3.8847,0
mp-30541,Nb(NiP4)4,0.0,0
mp-13483,PrBPt4,0.0,0
mp-696290,CuH8C4N8(ClO)2,0.0,0
mp-20828,Pt3Pb,0.0,0
mp-676229,Rb5NO5,0.0,0
mp-2963,CaAl2O4,4.3446,0
mp-1047764,MgTi2O4,0.0,0
mp-34761,Ta5N6,0.0,0
mp-756930,BaCaO2,2.8163000000000005,0
mp-862945,NaPmTe2,0.0,0
mp-865193,Co3Pt,0.0,0
mp-8140,AsPO4,4.567900000000001,0
mp-662530,KNiPS4,0.9783,0
mp-7788,Er2Co12P7,0.0,0
mp-756137,Li3Nb6O11,0.0,0
mp-2664,TiO,0.0,0
mp-696994,Zr2H16SN3(O2F3)3,4.0768,0
mp-20973,Ce2S3,0.0,0
mp-755013,Li5TaO5,3.7142999999999997,0
mp-12748,ThMn2,0.0,0
mp-570410,CdI2,2.3627,0
mp-21015,HoCuSb2,0.0,0
mp-1011696,Cs2Se,0.0,0
mp-866010,CaCdAu2,0.0,0
mp-1042608,MgTi4(CuO4)3,0.0,0
mp-1020019,Li2PNO2,5.6015,0
mp-675363,Nd12Si5Se28,0.0,0
mp-753199,Li3Cu2F8,0.0,0
mp-972528,SmYAg2,0.0,0
mp-22648,FeCu2SnS4,0.0,0
mp-1045892,AlCu3(WO3)4,0.0,0
mp-1047553,YSb3F15,0.0,0
mp-2432,CaMg2,0.0,0
mp-775992,TiNi3Sb2(PO4)6,0.5878000000000001,0
mp-707284,H24PdC8(NCl2)2,1.8282,0
mp-680836,Ta4Te9I4O,0.38119999999999976,0
mp-600032,SiO2,5.7155000000000005,0
mp-760701,LiNbO3,3.4191000000000003,0
mp-706579,KH3(SeO3)2,4.4838000000000005,0
mp-3334,Tm2Sn2O7,2.6486,0
mp-638731,LaCO3F,3.9559,0
mp-865517,YZnRh2,0.0,0
mp-764648,LiTiO2,0.0,0
mp-7126,TiSnSb,0.0,0
mp-504630,InTeCl,1.6597999999999997,0
mp-560711,Sm10S14O,1.8499999999999996,0
mp-1042604,MgCoMo2O7,0.8413999999999997,0
mp-534,B13N2,0.0,0
mp-8888,HoAl3(PbO4)2,2.9941,0
mp-628614,Ce2Si7Rh15,0.0,0
mp-1042820,ZnFeAs2O7,1.1908,0
mp-765481,Li2AgF5,0.4624999999999997,0
mp-976293,NaCdO3,0.0,0
mp-862975,PmZn2Cd,0.0,0
mp-20491,LaInCu2,0.0,0
mp-675290,Nb9IrSe20,0.0,0
mp-753506,LiBiS2,0.0,0
mp-3855,Na2BeF4,6.7369,0
mp-541582,ReSe2,1.1434000000000002,0
mp-567472,CuP4I,0.8799999999999999,0
mp-2359,NdPt5,0.0,0
mp-1042104,ZnNiP2O7,3.5472,0
mp-766267,Y7TmO12,4.062,0
mp-771168,Na2SiBiCO7,0.0,0
mp-864928,BrCl,1.3235000000000001,0
mp-30845,SmPt3,0.0,0
mp-568748,Fe2B,0.0,0
mp-504827,Ga10GePb3O20,3.0284,0
mp-3513,Dy2Al3Si2,0.0,0
mp-504468,Bi3Ru3O11,0.0,0
mp-559961,Tl2SeO4,3.3122,0
mp-680111,CdI2,2.3667,0
mp-1046,NbSn2,0.0,0
mp-754781,Ga3NO3,1.6791,0
mp-5913,Pr2Si2O7,5.1705,0
mp-1043057,Zn(Co2O3)2,0.0,0
mp-35432,Cr2FeO4,0.4327000000000001,0
mp-1269,SmS,0.0,0
mp-1026978,Te4MoW3S4,0.0,0
mp-972,MnSe,0.0,0
mp-1042707,Mg2V3O8,1.3518,0
mp-21140,CeSb,0.0,0
mp-755633,K5Se3,0.42790000000000006,0
mp-17095,CsCuSe4,1.0932,0
mp-867282,Tb2IrRh,0.0,0
mp-28066,ThBrN,2.6393,0
mp-27257,PBr3,3.3243,0
mp-561166,Na2ZrGe2O7,3.6856000000000004,0
mp-557381,Rb3U3Ge2O13,0.5333999999999999,0
mp-559014,Nd4GeO8,3.5008,0
mp-505312,Sr2FeCuSO3,0.6777999999999995,0
mp-849504,Ta2CrNO5,1.4359999999999995,0
mp-573810,U2Te5,0.0,0
mp-1030794,RbNaMg6O7,0.0,0
mp-21078,Fe3Ge,0.0,0
mp-40251,BaLaMgTaO6,2.9440999999999997,0
mp-571059,YCd3,0.0,0
mp-15415,K2GaAs2,1.0115000000000003,0
mp-756007,Li3Cu3(PO4)2,0.6345999999999998,0
mp-568610,Bi,0.0,0
mp-504957,RbReCl4,1.0283,0
mp-34034,Ba8P5Br,1.1637,0
mp-623463,TbMn5Ge3,0.0,0
mp-4298,Tm(MnSn)6,0.0,0
mp-698728,Ba2CaY(Co4O7)2,0.0,0
mp-768978,Ho2(SO4)3,5.9222,0
mp-569424,Cr2B,0.0,0
mp-753801,Cs2Sr2O3,2.1019,0
mp-9529,DyGeRh,0.0,0
mp-652399,Li(FeGe)6,0.0,0
mp-4870,Cu(BO2)2,0.0,0
mp-27221,Ca2Hf7O16,4.3157000000000005,0
mp-980649,TiNbRu2,0.0,0
mp-772999,Na2SiBiBO7,0.07450000000000001,0
mp-1043567,Sr2Cu2WO7,0.0,0
mp-768754,LiBi2(SO4)3,0.6097000000000001,0
mp-7049,ZrTlCuS3,0.6120999999999999,0
mp-1047808,MgMn3P3O13,0.06959999999999988,0
mp-10283,SmSi3Ni,0.0,0
mp-764414,K2Li2NiO4,0.40630000000000005,0
mp-559298,La5Sb4(O4F)3,3.3074,0
mp-1027483,Mo2Se3S,0.7892999999999999,0
mp-3778,Mg3(Al9Cr)2,0.0,0
mp-1016109,ZrZn16,0.0,0
mp-770586,Li3AlCrO5,1.9648999999999999,0
mp-698263,KYH4C4O9,1.1372,0
mp-765411,Li3CrSiO5,3.3511999999999995,0
mp-556353,Rb2NaNiF6,0.0,0
mp-28306,MnBr2,1.5958,0
mp-3469,ZrNi2Sb,0.0,0
mp-5861,Tm2Fe14B,0.0,0
mp-558768,Ag2TeO4,0.00010000000000021103,0
mp-764340,Li2FeSiO4,2.9573,0
mp-779551,Ba4Br6O,3.3563,0
mp-8861,Rb2MgF4,6.2257,0
mp-774374,Na3FeO4,0.41080000000000005,0
mp-274,Nb5Sb4,0.0,0
mp-560571,LaPS4,2.4274,0
mp-29185,Te2O3F2,3.3825000000000003,0
mp-1047169,AlAg(WO4)2,1.5724,0
mp-15432,K2Ga2As3,1.0329000000000002,0
mp-2384,LaP,0.0,0
mp-755705,SrLaI5,2.3508,0
mp-21200,PuGa2,0.0,0
mp-33816,Rb6Fe2O5,1.2235,0
mp-22991,CsVI3,0.5972999999999997,0
mp-989526,Cs2KTlF6,3.8205,0
mp-1086,TaC,0.0,0
mp-568443,Al2VCl8,1.6263,0
mp-14389,Na3AlP8O23,5.2445,0
mp-1005986,Zr9CoMo4,0.0,0
mp-675593,K3(VS2)5,0.0,0
mp-504731,EuF2,0.0,0
mp-733844,Na3GaP2H2O9,3.9887000000000006,0
mp-542909,Mn,0.0,0
mp-28387,PAuCl8,1.3333,0
mp-11508,MoP4,0.0,0
mp-10340,Na2GeTeO6,2.6512000000000002,0
mp-554153,SbS4N4Cl5,1.6012,0
mp-7426,Ba(ZnP)2,0.0,0
mp-736261,Sb4H8C2S7N,1.2202000000000002,0
mp-555652,K2Zn(SO4)2,4.398499999999999,0
mp-971712,ZnCdS2,1.3684000000000003,0
mp-1046056,Ba2TlBi2O7,0.0,0
mp-557519,CaCrF6,1.687,0
mp-1004528,CsB3PbF12,6.2981,0
mp-760193,H9PbC3I,3.053,0
mp-1019743,Ga3BN4,2.3927999999999994,0
mp-600060,SiO2,5.683199999999999,0
mp-29364,Li5SbO5,2.914,0
mp-1027153,Te2MoW3(SeS2)2,0.0,0
mp-641010,La4Te3N2,0.8803000000000001,0
mp-540296,Li2Mo(PO4)2,1.7581,0
mp-20846,CaIn2Ir,0.0,0
mp-1018783,LiBeB,0.0,0
mp-276,TbNi2,0.0,0
mp-8424,Li8PrO6,0.0,0
mp-861572,LiMn2OF3,1.8355000000000001,0
mp-684497,LiBi(PO3)4,4.6449,0
mp-6632,Ca5B3O9F,4.2439,0
mp-1121,GaCo,0.0,0
mp-567014,Rb2Te(WO4)3,2.9664,0
mp-754466,Li2AgF3,2.0522,0
mp-570238,P10Au7I,0.4964000000000004,0
mp-371,La3Tl,0.0,0
mp-974865,NdY3,0.0,0
mp-29403,GaCuI4,1.6966999999999999,0
mp-625151,H7ClO3,5.2273,0
mp-1029851,Na2GeN2,1.5018999999999996,0
mp-561172,BaBi4(BrO3)2,0.0,0
mp-680683,CsB9O14,5.4514,0
mp-978536,SmHoHg2,0.0,0
mp-7565,SbRu,0.0,0
mp-1043859,Sr2VCu2O7,0.0,0
mp-1045006,Ba2Ti2CuF14,1.0248,0
mp-1027350,TeMoWSeS2,0.0,0
mp-976881,Ni3S,0.0,0
mp-773100,La2BiO5,0.8297999999999996,0
mp-504849,Cs2Li2SiO4,3.8531000000000004,0
mp-28233,MnCl2,1.7923,0
mp-675332,InI4,0.0,0
mp-18619,Na2Ge2Se5,1.5615,0
mp-762259,Li2Cu2F5,0.0,0
mp-8093,Ba2Cd,0.0,0
mp-866829,Ca2SnS4,1.0664000000000002,0
mp-625397,Nd(HO)3,3.7396000000000003,0
mp-5850,ErSnPd2,0.0,0
mp-1029967,Rb15W7N19,1.426,0
mp-1041980,NiO2,0.0,0
mp-570988,La2PBr2,0.0,0
mp-2481,Mg2Cu,0.0,0
mp-771008,Ba3(BrO)2,2.472,0
mp-4384,Nb2CS2,0.0,0
mp-13931,Ba2TbReO6,0.0,0
mp-1009694,ReN,0.0,0
mp-707310,K2Zn3P4(HO3)4,4.9236,0
mp-1557,Mg3Au,0.0,0
mp-558806,HgTe2C2(NF8)2,2.0748,0
mp-1018726,HfVGe,0.0,0
mp-28223,LaSe2,1.3399,0
mp-631325,ScHgW2,0.0,0
mp-756103,Y2HgO4,2.0445,0
mp-17168,Er3Ni7B2,0.0,0
mp-778848,In3NO3,0.03059999999999974,0
mp-541975,Rb3Ta2S11,1.6649000000000003,0
mp-28035,BaP10,1.2913999999999994,0
mp-17242,Nb2(PO4)3,0.0,0
mp-11523,Ni3Sn,0.0,0
mp-867812,LiAlNi2,0.0,0
mp-631452,NbCrW,0.0,0
mp-1048423,BaAlW4O7,0.0,0
mp-15066,LiTmSiO4,4.7791999999999994,0
mp-31136,Lu2NiSn6,0.0,0
mp-1030515,TeMoWSe2S,0.0,0
mp-771944,Ba3La2Cl12,3.7858,0
mp-21148,PrInCu2,0.0,0
mp-975920,PrSmTl2,0.0,0
mp-20037,PrInRh,0.0,0
mp-540924,NbTeI3,0.45389999999999997,0
mp-1031039,KHfMg6O7,0.0,0
mp-2906,Ho(NiP)2,0.0,0
mp-2137,Mg2Ni,0.0,0
mp-667323,Mg(GaS2)2,1.9741,0
mp-11844,Ho6GaCo2,0.0,0
mp-6956,La(FeP)2,0.0,0
mp-685320,Li20B54O,0.0,0
mp-12798,Ni3Pt,0.0,0
mp-6915,As2PdO6,0.0,0
mp-950995,Li6PS5I,2.2742,0
mp-26261,Li2Cu(PO3)4,0.8250000000000002,0
mp-7839,ReB3,0.0,0
mp-675101,Ca5NbN5,0.7167000000000003,0
mp-11078,BaIn2Rh,0.0,0
mp-11283,ZrBe5,0.0,0
mp-772114,BaLaI5,2.4932,0
mp-779689,H3N,3.7337000000000002,0
mp-21852,Nb3PbS6,0.0,0
mp-37501,In10Sb9Te,0.0,0
mp-450,NbB2,0.0,0
mp-567089,YbRh,0.0,0