mp_id,formula,band_gap,fidelity
mp-19450,ScTl(MoO4)2,3.6201,0
mp-18376,KHgC3(NO)3,3.2554,0
mp-1027412,TeMoS,0.0,0
mp-756118,TbSmO3,4.456200000000001,0
mp-585,MnB2,0.0,0
mp-680842,Ca5MnPb3,0.0,0
mp-1029026,MoW3(SeS)4,0.7568000000000001,0
mp-605078,Sn2H21C6ClO2,2.8846999999999996,0
mp-973055,Hg3Au,0.0,0
mp-675554,Nd(SmSb)3,0.0,0
mp-571467,Cs2NaYBr6,4.2176,0
mp-30844,ScSnPt2,0.0,0
mp-753960,Li2H2SeO5,3.9349,0
mp-542200,CdAg4Ge2S7,0.6329000000000002,0
mp-766942,Li2MnF5,1.8375000000000001,0
mp-971806,TmFeGe2,0.0,0
mp-22556,Tm3TlC,0.0,0
mp-10611,La3PbC,0.0,0
mp-972981,K,0.0,0
mp-560569,KPrPdO3,0.5977999999999999,0
mp-1020361,MgSiO3,4.5708,0
mp-1048319,Ba2Mn3AlO7,0.0,0
mp-998151,CaTlCl3,3.9626,0
mp-3556,Tm2SO2,3.0985,0
mp-24144,Na5ScH4(C2O7)2,4.837,0
mp-769571,Ba2Ta2O7,2.9228999999999994,0
mp-554977,B2H10C2NClO3,4.0016,0
mp-758599,Sr5(ReO3)12,0.0,0
mp-764142,Li5MnV3O8,1.7765,0
mp-19336,Nd2MnCoO6,1.0807000000000002,0
mp-5185,K2BeF4,6.8711,0
mp-850935,CoOF,0.0,0
mp-505438,BaGd2PdO5,0.03599999999999959,0
mp-23759,SrH2,1.3011,0
mp-698668,Nb3ZnFe3(O6F)2,1.7278,0
mp-3603,Ce3(BN2)2,0.0,0
mp-569161,K2La6OsI12,0.0,0
mp-698357,SnH8(CI)4,3.0235999999999996,0
mp-643060,ZnH4(BrO)2,3.5934999999999997,0
mp-626835,H8PtO6,1.9425999999999999,0
mp-30119,Cs3AsO4,3.3566000000000003,0
mp-17256,Rb2Hf3OF12,6.2789,0
mp-28196,KH9O5,4.7217,0
mp-9961,Ti2CdC,0.0,0
mp-756758,CuH4(IO4)2,0.5463,0
mp-6189,CaCu(Si2O5)2,0.8497999999999997,0
mp-1046242,SrCaSn(PO4)2,3.5271999999999997,0
mp-29026,MnWN2,0.0,0
mp-28766,K2TiS3,1.1217,0
mp-690495,Fe5SnO8,1.0352000000000006,0
mp-10476,NaEr(SO4)2,5.7442,0
mp-867287,LiInAu2,0.0,0
mp-1046704,VPO5,1.9767000000000001,0
mp-530141,Li7Ti16O32,0.0,0
mp-1028959,TeMoWSe2S,0.0,0
mp-767780,KV4O10,0.0,0
mp-13146,Ca3N2,1.4782999999999995,0
mp-971909,ZnPd3,0.0,0
mp-20505,Ta2InCuTe4,0.0,0
mp-976181,NaBH4,6.5862,0
mp-974770,NdZn2Cd,0.0,0
mp-720255,Sr20P12Cl(O16F)3,5.1640999999999995,0
mp-30239,Sr3(BS3)2,2.3128999999999995,0
mp-28523,Li2Ta3N5,0.0,0
mp-20180,Mn3GeC,0.0,0
mp-4643,Nb2CuO6,0.27600000000000025,0
mp-777472,LiFeF4,3.9064,0
mp-571235,ZrI4,2.0134000000000003,0
mp-769111,Sc3Bi3O11,0.0,0
mp-867865,ReRh3,0.0,0
mp-685982,MgIn2O4,1.2218,0
mp-29567,CuSe2Br,0.8465,0
mp-558370,Ca3TiBe2Si2(As3O10)2,2.6233000000000004,0
mp-642662,SrH2Cl2O,4.0372,0
mp-168,Si,0.0,0
mp-754118,Sr(AsO3)2,3.2716,0
mp-556172,SiPb4(BrO)4,3.1492,0
mp-984796,BaTh3,0.0,0
mp-738695,H12OsC4N(OF)3,2.6447000000000003,0
mp-19394,LiV2O4,0.0,0
mp-571425,Ag2Hg7(P4Br3)2,0.7686999999999999,0
mp-771166,Na2SbAsCO7,3.2260999999999997,0
mp-556521,KNa7Pb2O7,0.8484,0
mp-23060,Cs2PtI6,0.6483999999999999,0
mp-972416,Tm3Lu,0.0,0
mp-999516,MnP,0.0,0
mp-1045423,Al(CoS2)2,0.0,0
mp-768589,Li3CuAsCO7,0.14360000000000017,0
mp-779228,Li4MnNi5O12,0.46110000000000007,0
mp-763248,V4FeO12,0.0,0
mp-555085,KAu(NO3)4,2.0172,0
mp-7472,RbAuO2,1.4611,0
mp-22973,NaMnBi,0.0,0
mp-864959,Dy2CuOs,0.0,0
mp-555474,Sr(ClO2)2,2.3952,0
mp-30386,HoAu3,0.0,0
mp-632672,LiHF2,8.2933,0
mp-573204,Cs2KBiF6,4.9469,0
mp-696128,Li10Ge(PS6)2,2.0551,0
mp-17559,Y2TiO5,3.2733,0
mp-707729,BaH6C2S2N2O3,4.1094,0
mp-31277,Sn4Ir,0.0,0
mp-677468,Ba16Tb8Nb5(SnO16)3,0.0,0
mp-758433,AgHg,0.0,0
mp-24170,CaPH3O4,6.067200000000001,0
mp-1030159,Te4MoW3(SeS)2,0.0,0
mp-677081,SrLa11Mg3Ga9O34,1.5107,0
mp-547517,Sr2Cu3(ClO2)2,0.0,0
mp-989553,Cs2TlGaH6,0.3826999999999998,0
mp-22542,Tm3PbC,0.0,0
mp-652318,CrFe2C10(Se2O5)2,1.5163,0
mp-6455,NaNd(SO4)2,5.5386,0
mp-17771,NaMg4(AsO4)3,3.1921999999999997,0
mp-753942,BaY3Br11,3.0403000000000002,0
mp-17649,TlSnF7,1.8252,0
mp-6434,RbAlSiO4,4.3806,0
mp-1041622,CaCuSb2O7,0.36229999999999984,0
mp-571490,Pr3CCl5,2.3972999999999995,0
mp-631637,Mg2PbW,0.0,0
mp-1043430,CaCr4O6,0.24950000000000028,0
mp-132,Ca,0.0,0
mp-30686,Zr2Ga3,0.0,0
mp-559676,SnS,0.3127000000000004,0
mp-980648,TmThRu2,0.0,0
mp-971631,GaP,0.0,0
mp-1020108,LiCaMgSiN3,2.8373999999999997,0
mp-1046126,Ba2Mg2Tl2Cu3O10,0.0,0
mp-998880,H9C8NO2,3.4078999999999997,0
mp-754210,Li6FeS4,0.0,0
mp-625664,H4N2O3,0.7247,0
mp-558099,Nb2Tl5S4Br9,1.6588000000000003,0
mp-863014,SmH32C8N4Cl7,4.8246,0
mp-16847,K3Na2SnP3,0.9637000000000002,0
mp-571526,Rb2PtC4(BrN2)2,2.0048,0
mp-695816,LiFeP2O7,2.4343,0
mp-29735,Nb10Ge7,0.0,0
mp-754801,Li3Ti6O13,0.0,0
mp-570747,N2,6.739,0
mp-976031,NaAc,0.0,0
mp-694917,Na4CaFe4(PO4)6,0.5366999999999997,0
mp-931,ThP,0.0,0
mp-776015,Li2Ti3NiO8,2.2797,0
mp-709069,Ti2P4H9C2NO16,2.5404,0
mp-15722,Fe2B4Mo,0.0,0
mp-1046779,Sr2AlGaCo2O7,0.7689999999999997,0
mp-567942,Cs2ReCl6,1.2397,0
mp-982,TmPd3,0.0,0
mp-1046270,Zn(SbO2)4,1.8436000000000003,0
mp-559427,BaSr4U3O14,2.0759000000000003,0
mp-23063,Ba4Cl6O,4.3647,0
mp-27755,KAlCl4,5.286300000000001,0
mp-622262,Te6MoBr3,1.0895000000000001,0
mp-1008726,Ti2Ga,0.0,0
mp-29155,TlB3O5,4.2226,0
mp-16508,Lu3Al2,0.0,0
mp-6569,K3HgN5O11,2.4972,0
mp-28522,Gd2CBr,0.0,0
mp-730074,Rb2CaH8(N3O)4,4.3526,0
mp-39226,SrLa4TiAl4O15,2.0999999999999996,0
mp-973199,Sb3Pb,0.0,0
mp-697305,K2Na5Al7Si5O24,2.3028,0
mp-4416,Ho6FeSb2,0.0,0
mp-775226,LiMn2(BO3)2,0.5681999999999998,0
mp-626467,Al(HO)3,4.0103,0
mp-696956,CuHClO,0.0,0
mp-769030,Bi5BO10,0.01890000000000036,0
mp-567652,Cs2LiYCl6,4.8986,0
mp-1028980,Te4MoW3(SeS)2,0.0,0
mp-686726,LaTiAlPbO6,1.8576000000000006,0
mp-675433,Mn2SbTe,0.0,0
mp-556436,Sb2BrF15,2.8579,0
mp-17491,Ba2LiGe3,0.09699999999999998,0
mp-540558,S5N4O3,1.845,0
mp-698170,Ca2B5H2ClO10,5.228800000000001,0
mp-28782,Na3PS4,2.2814000000000005,0
mp-8531,Lu5Ni19B6,0.0,0
mp-975601,Pr3Cl,0.0,0
mp-1045339,Y(MnS2)2,0.0,0
mp-8409,KYO2,3.9738999999999995,0
mp-735519,KHoCoSi2O7,3.0267,0
mp-22349,Sm(FeGe)2,0.0,0
mp-9769,BaAs2Pt,0.0,0
mp-771611,Li5V4O8,0.8807999999999998,0
mp-867955,Na2Nb3O6,0.0,0
mp-6452,BaSm2ZnO5,3.2387,0
mp-571090,ErMn2,0.0,0
mp-555108,PH9C(NO)4,5.0103,0
mp-568346,HfBrN,2.1309,0
mp-569188,La(AsRu)2,0.0,0
mp-677628,Mg2TiO4,3.2878000000000003,0
mp-5129,Y(CoSi)2,0.0,0
mp-12070,CuAs,0.0,0
mp-558368,AgBi2S3Cl,0.7821000000000007,0
mp-7384,SmF3,7.7298,0
mp-684,BaS2,1.5760999999999998,0
mp-1469,P4S3,2.8816,0
mp-676382,Yb2Zr2O7,0.0,0
mp-864901,LaAu3,0.0,0
mp-560861,Cs2KMnF6,1.5996,0
mp-5560,Cd3(BO3)2,1.4544000000000001,0
mp-768954,Ba2YCl7,4.7082999999999995,0
mp-517,TaSi2,0.0,0
mp-30859,Zr9Pt11,0.0,0
mp-1625,SnSb,0.0,0
mp-4511,La2SO2,3.0609,0
mp-14354,Rb2SrP2O7,4.7092,0
mp-20896,TmInNi4,0.0,0
mp-778223,Li4Ti3Mn2Cr3O16,0.4196,0
mp-985297,Ag3Rh,0.0,0
mp-561017,Cs8Tl8O,0.2062999999999997,0
mp-755526,Ba2Ti6N2O11,1.9033000000000002,0
mp-1042,HfSi,0.0,0
mp-763609,Li4Mn5O10,0.6966000000000001,0
mp-769073,Na2LiTi3Al(PO4)6,2.3310000000000004,0
mp-23592,Ag2Hg7(As2I3)2,0.6387999999999998,0
mp-14324,K2Na4Be2O5,2.4329,0
mp-27124,Cu4(BiS2)5,0.0,0
mp-1550,AlP,1.6302000000000003,0
mp-25943,Li2CuP2O7,0.0,0
mp-2204,Nd3Te4,0.0,0
mp-8676,Tl(CuS)2,0.0,0
mp-5449,Na2Ti6O13,2.9166999999999996,0
mp-7275,BaSi2,0.0,0
mp-762980,VO2F,1.6265,0
mp-30463,BiPd3,0.0,0
mp-19367,NaCr(SiO3)2,2.8718999999999997,0
mp-774482,KLiTi2(PO5)2,3.012,0
mp-574283,GdTe,0.0,0
mp-1886,TbTl3,0.0,0
mp-998333,CsCaI3,3.7132,0
mp-771158,Ba2B2O5,3.9978,0
mp-20705,U2SnRu2,0.0,0
mp-27767,Li6Si2O7,4.7951999999999995,0
mp-25257,Li15Bi4(PdO10)2,0.03420000000000001,0
mp-24658,SmH2,0.0,0
mp-999295,PrN,1.0770999999999997,0
mp-558553,Sr4Ti5(Si2O11)2,1.9373,0
mp-631554,Na2TiAu,0.0,0
mp-29383,KGaSb2,0.9419999999999997,0
mp-17241,Rb2LiFe(CN)6,0.0,0
mp-1046114,SrTiZn(PO4)2,0.0,0
mp-568116,Lu2(CN2)3,3.7118999999999995,0
mp-866622,Ca3Sn4S11,0.004999999999999893,0
mp-38,Pr,0.0,0
mp-540689,Ba2SnS4,2.3103,0
mp-620346,Ba3InAs3,0.5167000000000002,0
mp-600237,Ag(CO)2,0.7095,0
mp-971767,ZnHg3,0.0,0
mp-24742,K2MgH8(SO6)2,5.18,0
mp-780360,Na8Gd2O7,1.8545000000000003,0
mp-637378,Gd3InN,0.0,0
mp-865187,MgFeRh2,0.0,0
mp-546679,Nd2AlNO3,1.0619999999999994,0
mp-771112,Li2Mn3NiO8,1.3205,0
mp-766540,Li4TiS4,2.3658,0
mp-30161,Si2CN4,4.3687000000000005,0
mp-980192,YbOs3,0.0,0
mp-775299,FeCo(PO4)2,0.6879,0
mp-28551,H8CN6,3.6266,0
mp-27181,KAuCl4,1.4392,0
mp-585266,MnP2O7,0.5326,0
mp-568545,Cd4P2I3,1.379,0
mp-550998,TiZn(BiO3)2,1.9356,0
mp-1008874,MnCoTe,0.0,0
mp-23384,LiIO3,3.7255000000000003,0
mp-7135,TbS2,0.0,0
mp-13982,CdCu2GeS4,0.3622000000000005,0
mp-757624,Sr3La4O9,3.8438,0
mp-29424,Sr4As3,0.5853000000000002,0
mp-12625,U2TeO2,0.0,0
mp-976220,NaCdHg2,0.0,0
mp-644225,Sr2MgH6,2.7286,0
mp-555065,LiEr(PO3)4,5.9182,0
mp-557104,LiAlB2O5,5.4116,0
mp-619546,Cs2HgBr4,2.479,0
mp-8407,Li3LaP2,0.6124999999999998,0
mp-782656,Co2OF3,0.0,0
mp-558506,BH9(CO)3,5.7751,0
mp-15701,MgSiN2,3.4715,0
mp-780217,Li7CuO4,1.9921,0
mp-973111,In,0.0,0
mp-974525,ReAg3,0.0,0
mp-505598,Zr(Ni2P)2,0.0,0
mp-9415,Ba6Ni25S27,0.0,0
mp-697922,ScH8(NF2)3,0.0,0
mp-1042026,MgMnP2O7,3.7257999999999996,0
mp-779031,NaV(PO4)2,2.0431,0
mp-2420,PW,0.0,0
mp-746371,KCo2As2HO8,2.0012999999999996,0
mp-542214,Si6Cl10O7,5.46,0
mp-8232,BaZrF6,6.2669,0
mp-4856,HoGa5Co,0.0,0
mp-5447,Sm3OsO7,0.0,0
mp-769411,Li6B3SbO9,3.5961,0
mp-643,ThO2,4.4187,0
mp-6574,Er2C(NO)2,4.0097000000000005,0
mp-18649,MnGeRh,0.0,0
mp-697451,ZnP2(HO)4,4.1184,0
mp-861892,DyInRh2,0.0,0
mp-24479,SrH2Br2O7,4.0296,0
mp-767408,Na2PRuCO7,0.0,0
mp-5431,BaTeO3,2.7125,0
mp-971832,ZnIn3,0.0,0
mp-657353,BaZn(SeO3)2,0.6963000000000001,0
mp-29427,Ta(TeBr3)2,1.1942,0
mp-15277,La5Cu19P12,0.0,0
mp-7650,RbScO2,3.4540999999999995,0
mp-675757,Ba2As6O11,1.7849000000000004,0
mp-557354,Tm2Te4O11,3.2138,0
mp-675179,Ba3Bi2F12,5.1102,0
mp-10846,NiAsSe,0.0,0
mp-779889,Li5FeO4,3.0738999999999996,0
mp-555646,BaH4(CO3)2,3.4081,0
mp-864953,MnV2Cr,0.0,0
mp-623511,Sn,0.0,0
mp-686482,K2YTi(PO4)3,2.5582,0
mp-1047935,Be3V2(SiO4)3,1.8777000000000004,0
mp-581968,Tm2Pd2Pb,0.0,0
mp-698292,K2ZrCdH16(CO3)8,2.9671000000000003,0
mp-11254,NdAu,0.0,0
mp-1043721,MgSnBiO5,0.0,0
mp-676024,Li27Sb10,0.0,0
mp-973254,LaNdHg2,0.0,0
mp-627993,LiV2O5,0.29259999999999975,0
mp-28567,LiBiF4,4.8473,0
mp-555515,CuAg4TeO6,0.0,0
mp-554332,SrCrF6,0.0,0
mp-676813,RbAg4I5,1.7041999999999997,0
mp-780561,La3Ga5O12,2.869,0
mp-677703,Nd4Si4N7ClO3,3.1679999999999997,0
mp-1040985,MgAg3P3O13,0.0,0
mp-976949,Lu3In,0.0,0
mp-571006,YbP5,0.3479000000000001,0
mp-19319,ErMnO3,0.4478000000000004,0
mp-1041019,CuReO4,1.1371000000000002,0
mp-1572,GaSe,1.2405999999999997,0
mp-27961,Zr3(Cu2Si3)2,0.0,0
mp-865076,NaCd2Pt,0.0,0
mp-1042220,BaCuReO5,0.0,0
mp-6539,RbTiPO5,3.0134,0
mp-551092,KLiZnO2,2.1715,0
mp-570564,Ce3CuGeSe7,0.0,0
mp-17525,Nb5Pt3O,0.0,0
mp-7812,GeO2,3.2779,0
mp-707324,PH6SN3,4.177700000000001,0
mp-680158,K2Ti(GeO3)3,2.8470999999999997,0
mp-754815,YBr3,3.9764999999999997,0
mp-755413,Na2O,1.0915,0
mp-1013917,LiMn3P3O13,0.0,0
mp-561584,Gd2GeO5,3.113,0
mp-775207,Li4CrP6(H4O11)2,2.7359999999999998,0
mp-631277,SrCrW2,0.0,0
mp-978995,TmMnRh2,0.0,0
mp-703444,B5H12NO12,5.5022,0
mp-2927,LiAg2Sn,0.0,0
mp-764387,MnOF,0.0,0
mp-5515,Li7MnN4,0.6562000000000001,0
mp-2139,BaGe2,0.5255000000000001,0
mp-20872,Sr(AlPb)2,0.0,0
mp-29123,Se2Br3N,1.2256,0
mp-583724,Yb7Al5Ge8,0.0,0
mp-775448,Li2Ti3NiO8,2.8272,0
mp-11738,Na3PS3O,2.8296,0
mp-867297,AcIn3,0.0,0
mp-780393,HoBO3,5.0472,0
mp-770347,TbNiO3,0.0,0
mp-766417,Ba10Cu5O17,0.0,0
mp-674359,Tl3PbCl5,3.3898,0
mp-768311,Cs3NO4,3.0787999999999993,0
mp-30537,TbP5O14,5.362,0
mp-977442,Yb2ZnGa,0.0,0
mp-999294,Pd3N,0.0,0
mp-5830,Na3AsS3,2.5165,0
mp-651217,As(IF3)2,0.6425000000000001,0
mp-20517,BPd3,0.0,0
mp-556487,K2NaMoF6,3.8931,0
mp-11232,YAl3,0.0,0
mp-773194,Li4Mn5V3O16,0.6164999999999998,0
mp-722867,Ca3Cu5Si9O26,0.0,0
mp-1019967,LaSi3N5,3.1934999999999993,0
mp-625231,P(HO)3,4.174899999999999,0
mp-569126,AgBi(PSe3)2,1.2778,0
mp-2793,AuSe,0.26239999999999997,0
mp-411,ErCo3,0.0,0
mp-510536,MoO2,0.0,0
mp-8124,YbCuSi,0.0,0
mp-766828,Li4Ti15O32,2.0055,0
mp-706653,H8S2N2O5,3.351,0
mp-674350,TiPb9O11,1.7973,0
mp-28316,K3LiSi4,1.5221999999999998,0
mp-1042573,Zn(CoO2)2,0.2768999999999999,0
mp-1041992,CaSi2WO6,1.5758999999999999,0
mp-1668,YbAu2,0.0,0
mp-11841,CeAg,0.0,0
mp-532315,Sr17(Ta5S21)2,1.7864000000000002,0
mp-640372,Dy5NiPb3,0.0,0
mp-1008677,TiO2,1.0564999999999998,0
mp-650526,WC4(BrO2)2,2.0297,0
mp-984728,BC,0.0,0
mp-12531,Sn4As3,0.0,0
mp-9615,LiTiS2,0.0,0
mp-22529,SrInAu,0.0,0
mp-644607,CO2,6.3098,0
mp-10139,Sc3SnB,0.0,0
mp-780897,Li2Mn2P4H6O17,0.8574,0
mp-637736,ZrGeRu,0.0,0
mp-555918,Hg2SeO3,2.3109,0
mp-557084,Al2CuSi2O7F2,0.6347999999999998,0
mp-757464,LiNb(PO3)4,0.17820000000000036,0
mp-782641,Na4V2P(CO4)4,0.0,0
mp-13866,SbO2,0.42160000000000064,0
mp-672645,TiSiRh,0.0,0
mp-772156,ErAsO4,3.5786000000000002,0
mp-980385,Tb3Er,0.0,0
mp-770943,Li4TiNi5(PO4)6,2.3245999999999998,0
mp-2532,PrTe,0.0,0
mp-22255,RbInTe2,1.1089000000000002,0
mp-652854,BiRu2(CO)6,1.1317,0
mp-676058,V3NiS6,0.0,0
mp-11209,AlAs,0.0,0
mp-761849,Na5Li3Ti5O14,2.9587000000000003,0
mp-680463,Rb4Pb9,0.31099999999999994,0
mp-685991,Li5SiP3,1.3803,0
mp-863404,Li2Cu2F7,0.0,0
mp-1041866,MgV(SiO3)2,2.3312999999999997,0
mp-1042658,Mg3Fe4(SbO4)6,1.7163,0
mp-754370,Ba3GeO5,2.7592,0
mp-561310,NaLiCO3,4.313400000000001,0
mp-607077,Ce(Al4Fe)2,0.0,0
mp-973444,K3V,0.0,0
mp-772212,LiNb5O8,0.09080000000000021,0
mp-861563,Li3VSiO5,1.6511000000000005,0
mp-754588,ZrBiO4,0.0,0
mp-556870,MgAl2O4,4.8621,0
mp-561442,Y2Hf2O7,3.3374000000000006,0
mp-4251,Pr(Sb3Os)4,0.0,0
mp-686085,Sc13Cu13O33,0.0,0
mp-30045,CoGe2,0.0,0
mp-1041793,Ca(CuO2)2,0.0,0
mp-761501,Mn2CoO6,0.0,0
mp-540956,YH18C3S3(O2F)9,5.9427,0
mp-31010,Ca2As3,0.23040000000000038,0
mp-770365,LiAlVO4,0.36549999999999994,0
mp-3275,PrFeSi2,0.0,0
mp-866145,Lu2AgIr,0.0,0
mp-5039,KPO3,5.0422,0
mp-763935,V6O7F5,0.9371,0
mp-12804,SmAlSi,0.0,0
mp-569358,Bi,0.0,0
mp-860792,H6C2SBr2,2.4133999999999998,0
mp-976743,LiEr2In,0.0,0
mp-761574,CoSnO3,1.1886,0
mp-568498,Sm2(CN2)3,2.4814,0
mp-1045593,YTi4(CuO4)3,0.0,0
mp-11012,Sr(BS2)2,2.9754,0
mp-19,Te,0.1856,0
mp-626275,Ca(H8O5)2,3.6908000000000003,0
mp-1042977,MgBi2O5,0.0,0
mp-757490,LiSnPO4,3.3674999999999997,0
mp-14226,Ba2YSbO6,0.0,0
mp-571544,KTiPSe5,0.8898999999999997,0
mp-7760,AlSn,0.0,0
mp-540628,Al(TeCl2)2,1.3285,0
mp-1044754,CaPr(FeO3)2,0.0,0
mp-1014168,CsPbBr3,1.8178,0
mp-559109,ErGeBiO5,3.3459000000000003,0
mp-754474,USiS,0.0,0
mp-13369,Ba3CaIr2O9,0.0,0
mp-29199,BaCuN,0.006400000000000183,0
mp-18577,KAg3S2,1.3338999999999999,0
mp-686077,Er18Ti14O55,2.3688000000000002,0
mp-756988,Nb5OF14,0.0,0
mp-10933,Nd2TeS2,1.5852000000000004,0
mp-698122,K3H3S2(O4F)2,1.1044,0
mp-1017514,MgSiN2,4.1796999999999995,0
mp-985440,CrGa3P4,0.0,0
mp-510633,Pb2CBr2O3,2.7849000000000004,0
mp-2095,Rb2Te3,0.6637,0
mp-2348,Zr2Au,0.0,0
mp-707519,Mg16Si8HO32,0.0,0
mp-862882,CaPmAu2,0.0,0
mp-20255,TiCuSi,0.0,0
mp-863017,RbZnH2Se2BrO6,4.002,0
mp-1048567,Sr2CoCuSO3,0.0,0
mp-8812,Rb2GeF6,5.9668,0
mp-10106,Ca2As,0.0,0
mp-22167,Zr6Ga2Co,0.0,0
mp-17701,Sr2NbN3,2.2929999999999997,0
mp-19795,InS,1.3508000000000004,0
mp-8959,CsK2PdF5,1.8660999999999999,0
mp-1028542,TeW2SeS2,0.0,0
mp-780485,LiVP2HO8,1.3803,0
mp-698414,CuH8C2NCl3,0.20359999999999998,0
mp-755346,Li5BO4,5.184900000000001,0
mp-557090,Bi2Au5F21,1.4016,0
mp-977576,NdZnAu2,0.0,0
mp-7841,Ba(GaSe2)2,1.8578000000000001,0
mp-4009,BaPdS2,0.3844000000000003,0
mp-862492,LiErTl2,0.0,0
mp-767981,NiOF2,0.7987,0
mp-10246,Na2PtS2,1.1356999999999995,0
mp-763941,Mn6OF11,0.0,0
mp-20038,Eu(CoP)2,0.0,0
mp-756646,SrLu2O4,3.5547000000000004,0
mp-17964,Na2Ge2Se5,1.4022999999999999,0
mp-18576,Tm2Cu(B2O5)2,0.6612999999999998,0
mp-644244,Rb2MgH4,3.2777,0
mp-22848,Cl2,2.5434,0
mp-1016874,SiHgO3,0.0,0
mp-615537,PdC2ClO2,0.095,0
mp-1044044,CaSnBiO5,0.0,0
mp-862291,BeGaRh2,0.0,0
mp-557761,KBa4Sb3O,1.0220000000000002,0
mp-775191,Fe3Cu(PO4)4,0.0,0
mp-542143,RbZn4(BO3)3,2.7811999999999997,0
mp-5831,Cu(SbO3)2,0.0,0
mp-757967,LiSn4P7O24,0.3184,0
mp-541403,Hg7(P2Br3)2,1.6504999999999999,0
mp-10316,CeCdAsO,0.0,0
mp-28194,BiClF8,2.0644,0
mp-973953,NdCl2,0.0,0
mp-505512,Ce2Sc3Si4,0.0,0
mp-1048132,CaCoO2,1.8656000000000001,0
mp-1018666,CeSi2Mo2C,0.0,0
mp-973960,KScO3,0.0,0
mp-760385,In2Ag,0.0,0
mp-621960,Sb4Pb4S11,0.0,0
mp-772521,Li8TiO6,3.9915999999999996,0
mp-867534,LiAg2F4,0.0,0
mp-561533,SbOF,3.3226999999999998,0
mp-8101,WN2,0.0,0
mp-1045938,MgTiO2,0.24409999999999954,0
mp-1048555,YCo3Se2ClO8,1.6126,0
mp-676303,NaU2Cl6,0.0,0
mp-961671,TiGePt,0.0,0
mp-556855,Ba3Bi(ClO)3,3.9283,0
mp-707754,CaH2I2O7,3.6191,0
mp-705604,BaLaFe2Cu2O11,0.0,0
mp-1048919,CaLaCrSnO6,2.3655999999999997,0
mp-556467,Rb4Nb2S10O,1.5715999999999999,0
mp-9028,PrBN2,2.1062000000000003,0
mp-42163,Ca10Si3S3(ClO12)2,4.5001999999999995,0
mp-757660,Li2CuCO4,0.06919999999999993,0
mp-757138,Li2Sn(PO3)4,4.0198,0
mp-625837,Be(HO)2,5.410900000000001,0
mp-2178,YbGa2,0.0,0
mp-1020632,RbB3O5,5.6293999999999995,0
mp-973564,La2TlZn,0.0,0
mp-33335,MgAl2O4,4.251799999999999,0
mp-606711,Cs3LiCl4,4.764,0
mp-13448,Zn11Rh2,0.0,0
mp-674477,MgZr4O9,3.7198,0
mp-643759,GaH3NF3,5.3017,0
mp-8860,Na3As,0.11930000000000018,0
mp-13679,PdF3,0.0,0
mp-29411,Na2B2S5,2.5898,0
mp-721067,LiCaP3H8O13,5.2237,0
mp-14643,Er2Te3,0.05210000000000026,0
mp-605028,Te2Pd3Pb2,0.0,0
mp-569251,Lu7Sb3,0.0,0
mp-867324,Tb2Ni12As7,0.0,0
mp-767410,Bi6P2O15,0.0,0
mp-637235,KC2N3,4.500500000000001,0
mp-676491,Ca3Yb2Zr3Ti8O28,2.6925,0
mp-631267,TaFeSb,0.0,0
mp-1046354,SrMgMn(PO4)2,3.7471000000000005,0
mp-31305,Hf(TeCl)6,1.0245000000000002,0
mp-976948,Ni3H,0.0,0
mp-6651,K2Ta2(OF2)3,3.9245,0
mp-977386,LiLu2Tc,0.0,0
mp-999079,Ti2AlCu,0.0,0
mp-1018785,LiFeAs,0.0,0
mp-769252,Sr3Ta2O8,4.082,0
mp-4638,TlCrTe2,0.0,0
mp-31209,Ca(BeGe)2,0.0,0
mp-6914,CaGa,0.0,0
mp-555173,UCO5,2.2611,0
mp-636368,Ga3Fe,0.22150000000000025,0
mp-865444,LiSc2Pt,0.0,0
mp-865794,LaYbHg2,0.0,0
mp-27467,Ta6S,0.0,0
mp-989548,Rb2NaTlF6,3.6388,0
mp-757583,Li2TiCuO4,0.0,0
mp-31483,Na5TlSn3,0.05259999999999998,0
mp-672337,VGe3,0.0,0
mp-531358,Sr17(Ta5S21)2,1.8116999999999999,0
mp-674858,Co(NiS2)2,0.0,0
mp-646456,Tm2In8Co,0.0,0
mp-24155,ZrH2,0.0,0
mp-8793,Nd5(FeB3)2,0.0,0
mp-673874,Ba9(NdS6)2,2.1401000000000003,0
mp-765704,Li4Fe3Cu2Sb3O16,0.0,0
mp-12004,Er2Al3Si2,0.0,0
mp-1019745,K2Ca3Si3O10,4.7468,0
mp-20291,YPb3,0.0,0
mp-3867,Pr2Co7B3,0.0,0
mp-20622,SiPd3,0.0,0
mp-743906,La5MnRe3O16,0.0,0
mp-559635,Sr3CaIrO6,0.0,0
mp-772682,Dy2W2O9,3.1433999999999997,0
mp-1259,YbAl3,0.0,0
mp-1033689,RbMg6BO7,0.0,0
mp-862750,SrNiSn2,0.0,0
mp-561307,DySCl,2.7617000000000003,0
mp-1041448,CaCu2(MoO4)2,1.3138999999999998,0
mp-600177,KH13CBrNO7,1.8195,0
mp-762289,Li2P2WO8,3.2535,0
mp-19315,Sr2MnWO6,2.1882,0
mp-1008632,V2C,0.0,0
mp-18690,SmF3,5.4407000000000005,0
mp-741,HfO2,3.393299999999999,0
mp-574199,Sm(NiP)2,0.0,0
mp-866714,La3NiBr3,0.0,0
mp-989568,Cs2NaMgF6,0.0,0
mp-770782,Li6V(BO3)3,2.4695,0
mp-697146,Zn(HO)2,2.8582,0
mp-770755,Li3CrO3,1.0049000000000001,0
mp-8490,LiGe,0.0,0
mp-570147,Sc6Si11Ni18,0.0,0
mp-980063,YbDy3,0.0,0
mp-29218,Ge3Bi2O9,2.9644,0
mp-28867,Ba7Ir6O19,0.0,0
mp-27863,AlClO,5.5876,0
mp-10885,AlCrNi2,0.0,0
mp-560512,Sm2EuBeO5,0.5827,0
mp-7621,KTcO4,3.1886,0
mp-695316,Ca2AlH10BrO8,4.1827,0
mp-13474,LiErGe,0.0,0
mp-540575,ZnHg2H14C4N6O13,3.4328000000000003,0
mp-859136,Li2VF6,2.1147,0
mp-29532,Ca11(ReO6)4,0.0,0
mp-867773,DyMgCd2,0.0,0
mp-1046522,Ba2Mg2Tl2Ni3O10,0.0,0
mp-555860,EuTiClO3,0.0,0
mp-30756,LaSn3Ru,0.0,0
mp-982261,PbSe2,0.0,0
mp-619061,Yb2S3,0.0,0
mp-560625,RePbClO4,3.3739,0
mp-720262,Al2Si2H4O9,0.4899,0
mp-540554,NaH5SO4,3.9652,0
mp-11854,Er5Ge3,0.0,0
mp-30449,MgCuBi,0.0,0
mp-540977,Bi5IO7,2.4210000000000003,0
mp-12984,TbCuSe2,0.8279999999999994,0
mp-624691,VAgO3,1.9191999999999998,0
mp-623012,CuTe,0.0,0
mp-10128,ThGe2,0.0,0
mp-763255,LiCoSiO4,1.3725,0
mp-865854,Yb2CuRh,0.0,0
mp-1043797,CaVO2,0.0,0
mp-18112,Sr2Ge2Se5,1.1252,0
mp-769006,Li(Bi3O5)4,0.0,0
mp-600198,TeH21C7(NCl2)3,3.0381,0
mp-556979,CsSmGeS4,2.4631,0
mp-17841,Mg4Nb2O9,3.4252000000000002,0
mp-642682,CsHO,3.1721000000000004,0
mp-556940,MgSiO3,3.8758,0
mp-673151,Cu4(PO4)3,0.0,0
mp-772295,TmClO,4.5259,0
mp-1217,KSi,1.2619000000000002,0
mp-1471,Zr3Al,0.0,0
mp-557467,Li4Ca(BO3)2,4.7254,0
mp-770361,LiV2BO5,1.4777999999999998,0
mp-756715,Gd3InO6,2.8589,0
mp-557055,CuClF10,0.0,0
mp-6072,TmMn6(GaSn2)2,0.0,0
mp-672644,KNO3,3.1966,0
mp-672945,BiP2O7,0.0,0
mp-754495,NbNO,1.6542,0
mp-997084,RbAgO2,0.6655,0
mp-706521,K2PH3O5,4.1030999999999995,0
mp-649084,Sr2B8Ru7,0.0,0
mp-12599,PrTl,0.0,0
mp-771697,La2Ga4O9,2.698,0
mp-2451,YAl3,0.0,0
mp-27303,NaAg3O2,0.6596,0
mp-567427,Yb(GeRh)2,0.0,0
mp-23724,KHCO3,5.0058,0
mp-771711,Li4V3CoO8,0.8467000000000002,0