mp_id,formula,band_gap,fidelity
mp-30564,ThCo,0.0,0
mp-863703,Pm2MgSn,0.0,0
mp-763489,LiVPO4,2.6635,0
mp-19736,EuTe,0.0,0
mp-7018,LaGaS2O,1.9282000000000004,0
mp-676248,GaCuTe2,0.0,0
mp-1047504,Zn2TeWO6,1.9735,0
mp-1378,LiC,3.2727,0
mp-573658,Cs3BAs2,1.4870999999999999,0
mp-1018736,KCdAs,0.17270000000000008,0
mp-989625,SrWN3,1.1050999999999997,0
mp-720295,UH10N2O7,2.4049,0
mp-30809,Th7Ni3,0.0,0
mp-770763,LiMnPO4,3.3517,0
mp-2412,LiP5,1.2571000000000003,0
mp-5860,K2HgO2,2.0773,0
mp-13445,Rb2As2Pt,0.42779999999999996,0
mp-997037,CdAuO2,0.0,0
mp-12453,HoCuS2,1.6085000000000003,0
mp-4022,Zr2CoSi2,0.0,0
mp-757658,LiTi(PO3)4,0.11630000000000029,0
mp-631355,SrCrRh2,0.0,0
mp-18474,Ag8GeSe6,0.0,0
mp-31457,ZrSbRu,0.0,0
mp-28495,ZrBr2,0.0,0
mp-683949,AlP3(NCl3)3,3.6551,0
mp-554352,Ba2CuF6,0.0,0
mp-780204,LiMnP4(H2O7)2,1.5253,0
mp-558849,CdBiS2Cl,1.9160000000000004,0
mp-1048073,Ba2AlCu3O7,0.0,0
mp-30888,ZrZn22,0.0,0
mp-1045535,V2ZnO4,1.3788000000000005,0
mp-638261,La2GeO5,4.015499999999999,0
mp-2682,Sb2Rh,0.004000000000000448,0
mp-1011860,Na2CoP2O7,3.0133,0
mp-2011,UP,0.0,0
mp-672257,Tm2Ga8Fe,0.0,0
mp-978825,Sm3Cr,0.0,0
mp-1030456,Te2Mo3W(Se2S)2,0.0,0
mp-555821,Na4Cu(AsO4)2,0.6881000000000002,0
mp-1013534,Sr3SbN,0.0,0
mp-30465,YBiPd2,0.0,0
mp-989554,LaMnN3,0.0,0
mp-20470,Gd2O3,2.9035,0
mp-653120,Mn(GaTe2)2,0.0,0
mp-16871,K2ZrGe2O7,3.9038000000000004,0
mp-706815,KBa7Al15Si17O64,4.152299999999999,0
mp-541026,CaMg3Si3O10,3.4088000000000003,0
mp-764759,Li6Mn5O12,0.3382999999999998,0
mp-17500,GdPtF7,2.3379000000000003,0
mp-27322,Nb2Te3O11,2.5655,0
mp-676979,Mg2TiO4,3.2670000000000003,0
mp-1043326,MgGe2WO6,1.9873999999999998,0
mp-582753,Tl2Te,0.6448,0
mp-541810,K2Ni12As7,0.0,0
mp-639347,BaEuFe2O5,0.0,0
mp-1030104,Te6MoW3Se2,0.3418000000000001,0
mp-985295,Ag3P,0.0,0
mp-568599,Sm(NiSb)2,0.0,0
mp-17125,CsNa3Li12(GeO4)4,3.7822999999999998,0
mp-569054,La2Co3,0.0,0
mp-14883,Ba4Zr3S10,0.4663000000000004,0
mp-1029602,Sc2(CN2)3,3.2601,0
mp-7087,SiO2,5.3645000000000005,0
mp-1006127,Pa3Mo,0.0,0
mp-973738,GeBO3,0.0,0
mp-786,MnSb,0.0,0
mp-10967,CdCu2GeSe4,0.05410000000000004,0
mp-998599,KCaBr3,4.4047,0
mp-4356,CaSiO3,3.527899999999999,0
mp-2149,NpIr2,0.0,0
mp-627077,Ba(HO)2,4.109,0
mp-770346,Li2VBO4,2.0372000000000003,0
mp-675835,Dy2Zr8O19,2.3535000000000004,0
mp-975657,PrH,0.0,0
mp-16516,TbAl2Ni,0.0,0
mp-505750,Rb(SnSe2)2,1.0336999999999998,0
mp-11102,YbInRh,0.0,0
mp-767613,RbVBP2HO9,2.0693,0
mp-1046188,SrSb(PO4)2,1.6429999999999998,0
mp-780129,Fe2OF3,1.4514999999999998,0
mp-616601,Ba2InRuO6,0.3647999999999998,0
mp-28797,YHSe,1.5080999999999998,0
mp-543036,KDy(PO3)4,5.4718,0
mp-625803,Sr(H8O5)2,3.8525,0
mp-5951,CeMnNi4,0.0,0
mp-779317,LiMnF3,3.5182,0
mp-34461,Li7Mn11O24,0.7835000000000001,0
mp-775021,NaLi3Fe4(SiO3)8,2.6744,0
mp-542587,Ge3Pt2,0.0,0
mp-3444,ErTaO4,4.082800000000001,0
mp-8977,Ca2PN3,2.6026000000000007,0
mp-773238,Mn(CoO2)4,0.0,0
mp-17691,Cu3SbS3,0.9982999999999995,0
mp-559873,CSNO2F3,4.7073,0
mp-2768,Ba2As,0.0,0
mp-15670,Y5S7,0.0,0
mp-867940,Rb2U2O5,0.0,0
mp-705559,Na3Ca3Zr2Si4(O5F)3,3.0769999999999995,0
mp-510408,MnO2,0.0,0
mp-1013542,Ca3BiN,0.0,0
mp-574138,Cs2Te3As,0.8325,0
mp-541156,Ge4PbO9,3.1907,0
mp-672238,CeCuSb2,0.0,0
mp-541275,Cs2U(Cl2O)2,2.3217,0
mp-978967,SrDy3,0.0,0
mp-657,YbZn2,0.0,0
mp-18814,MnCO3,3.4614000000000003,0
mp-764111,NaFe(PO3)3,3.9641000000000006,0
mp-9396,HfTlCuS3,0.8069999999999995,0
mp-559057,NbTl(BO3)2,3.4093,0
mp-27566,K3(PtO2)2,0.0,0
mp-1047903,Be3Cr2(SiO4)3,1.8222,0
mp-680506,PtCl4,0.0,0
mp-11739,KLaTe2,1.7012999999999994,0
mp-760468,LiSi2BiO6,3.3344,0
mp-999195,RuN,0.0,0
mp-1018657,CaBiAu,0.0,0
mp-10834,RbNd2CuS4,0.9387999999999996,0
mp-8836,CaAlF5,7.1524,0
mp-567542,PbI2,2.3829000000000002,0
mp-30107,RbNb4Cl11,0.44499999999999984,0
mp-772583,Ca3W2O9,3.2671,0
mp-11674,Al2Se3,1.8016,0
mp-208,GeIr,0.0,0
mp-15798,MoC,0.0,0
mp-555030,NaY(PO3)4,5.5938,0
mp-558310,BaLi2SiO4,4.3896,0
mp-765943,Li3V2(O2F)2,0.8773,0
mp-757616,LiSn(PO3)4,0.0,0
mp-642350,KLa(PO3)4,4.348199999999999,0
mp-765463,ErH3(SO4)3,5.8801,0
mp-8696,K3Na(SeO4)2,3.5425,0
mp-1008865,NdCd2,0.0,0
mp-28860,P2Se5,1.3347,0
mp-20985,TaPbS2,0.0,0
mp-774381,LiFe4(BO3)4,1.7777999999999998,0
mp-687247,K5YCo2(NO2)12,0.0,0
mp-775022,LiFeOF,0.0,0
mp-24216,ZnHgAsHO5,1.3969,0
mp-567199,PbI2,2.402,0
mp-8322,Mn2ZnAs2,0.0,0
mp-13613,K2Mg2Be3F12,7.013199999999999,0
mp-971985,TbAlCu2,0.0,0
mp-30341,TiAgHg2,0.0,0
mp-695601,Na7Al12Si12H6ClO48,3.6089,0
mp-769561,Li4Mn3Fe3(NiO8)2,0.0,0
mp-690567,BaLaMnRuO6,0.0,0
mp-560730,H8CN2(ClO5)2,4.351,0
mp-1041468,ZnCr3P3O13,1.2612999999999999,0
mp-19983,TiCuSn,0.0,0
mp-10660,Tm,0.0,0
mp-772334,Li3Fe3TeO8,1.2469000000000001,0
mp-17672,BaLi(B3O5)3,5.7832,0
mp-780314,Li3V2P4(HO8)2,0.9941999999999998,0
mp-766411,H16PdC4S4(N4Cl)2,2.0412,0
mp-752930,LiCu(PO3)2,1.6143999999999998,0
mp-676449,Na4Al3Si3NO13,0.8347000000000002,0
mp-556904,KSbN(OF)3,3.2613000000000003,0
mp-505628,Cr3IrN,0.0,0
mp-631473,KTi2Bi,0.0,0
mp-851112,Ba9La5Br33,2.7671,0
mp-773628,NaV2O4,0.0,0
mp-19500,BaCr10O15,0.0,0
mp-9442,Dy3Fe2Si3,0.0,0
mp-652229,Co4Ge(CO)13,1.958,0
mp-757889,LiSn(PO3)3,3.8805,0
mp-542377,Na9Sn4,0.0,0
mp-849689,FeO,1.1609999999999996,0
mp-556009,MgTlAs(H6O5)2,4.3811,0
mp-770768,Na6Fe2B4AsO16,0.0,0
mp-13000,Ba2HoTaO6,3.4479999999999995,0
mp-8236,Ba(PPd)2,0.0,0
mp-757192,SnP2O7,3.9343000000000004,0
mp-552966,Rb4CO4,0.8876,0
mp-780519,Fe3(OF2)2,1.1624999999999999,0
mp-30744,IrW,0.0,0
mp-5666,Ho(MnGe)2,0.0,0
mp-23706,YH3,0.0405000000000002,0
mp-17101,CaNb2O6,3.6052,0
mp-698381,H12RuC4S2N2Cl2O5,2.0347,0
mp-17172,Tl2TeS3,1.2603000000000004,0
mp-560534,Ba3Er2(PS4)4,2.3777000000000004,0
mp-850103,Li4V5(FeO6)2,1.3976000000000002,0
mp-773114,Ce2U3O10,0.0,0
mp-1042500,BaYCuMoO5,0.0,0
mp-567401,Tb4Zn5Ge6,0.0,0
mp-676528,SrTe5O11,0.16169999999999973,0
mp-1019360,ThPSe,0.0,0
mp-769278,LiCuPO4,0.21829999999999994,0
mp-559005,NaAsH4O5,3.8417000000000003,0
mp-694541,FePO4,2.6559999999999997,0
mp-2753,Tl4S3,0.8601000000000001,0
mp-703343,Li2Sn(H5O4)2,4.0087,0
mp-554238,CuBiSCl2,0.6101000000000001,0
mp-567524,K3Ga3As4,0.8722000000000001,0
mp-691115,Li4Mn5O12,0.9998,0
mp-510458,HCN,3.5894,0
mp-14778,Ca3Zn3(TeO6)2,2.1295999999999995,0
mp-978527,SmDyTl2,0.0,0
mp-561368,NaClO4,5.2431,0
mp-780869,Tm2WO6,3.2150999999999996,0
mp-752890,LiCu2C2O7,0.0,0
mp-976447,NaCrH8(NF3)2,3.9976000000000003,0
mp-674298,Al22CdO34,2.2583999999999995,0
mp-22801,LuSiRh,0.0,0
mp-28778,KScF4,6.0931,0
mp-556122,BaCa(PO3)4,5.5237,0
mp-20318,Mn2B,0.0,0
mp-2583,TiRh,0.0,0
mp-504902,SiBr2,2.6702,0
mp-8453,RbNaO,1.9855999999999998,0
mp-5486,Ca(CuSi)2,0.0,0
mp-33312,Nd2UTe4,0.0,0
mp-643659,Ho5(Ge5Ir2)2,0.0,0
mp-652744,POs6C18ClO18,2.2333,0
mp-764009,Mn6O7F5,0.0,0
mp-22713,Ce2Ni2Sn,0.0,0
mp-28100,NaFeS2,0.0,0
mp-7640,Sc2Si2O7,3.764400000000001,0
mp-569605,Yb2Tl,0.0,0
mp-771075,Li8MnO6,0.7562999999999999,0
mp-546707,Na4CO4,2.4246,0
mp-717,B2O3,8.3486,0
mp-30739,Mg3Ir,0.0,0
mp-505267,Np2Si4Tc3,0.0,0
mp-3800,Yb3Al5O12,0.0,0
mp-764357,V2OF5,1.7996,0
mp-570005,SbBr3,3.113,0
mp-569964,CdI2,2.3769,0
mp-1020703,SiGeN2O,3.5040999999999998,0
mp-1018094,BaGaSnH,0.0524,0
mp-623108,Eu4Ir,0.0,0
mp-780310,Fe5(O4F)2,0.0,0
mp-10792,DyBO3,5.0107,0
mp-675391,Tl2Fe3Se4,0.0,0
mp-510582,NdNiSnH2,0.0,0
mp-707938,MgH18C4SN8O9,5.1563,0
mp-1046171,Ca2Ta2CrO8,2.1716,0
mp-561377,K4Mn3F12,0.84,0
mp-6785,K3UO2F5,2.7138999999999998,0
mp-555118,NaPO3,5.081,0
mp-554072,K2CO3,3.6203,0
mp-20672,Hf3P2,0.0,0
mp-2179,TiRe,0.0,0
mp-764333,V3(OF3)2,0.0,0
mp-31030,KHo2F7,6.916099999999999,0
mp-1009080,HoCd2,0.0,0
mp-755880,WN2,0.13649999999999984,0
mp-30498,TbCd3,0.0,0
mp-605863,AgSbPbS3,0.5549,0
mp-754636,ErBiO3,2.4634000000000005,0
mp-626690,TlHO,1.5129,0
mp-776406,TePO5,0.0,0
mp-755585,LiAgO2,0.0,0
mp-20486,Pu3Ga,0.0,0
mp-541788,P2S5,2.554,0
mp-8568,Ca4PtO6,2.3916999999999997,0
mp-27787,NbPCl10,2.2683,0
mp-20210,Ag2PbO2,1.3770000000000002,0
mp-556164,Si(AgO)4,0.6680999999999999,0
mp-760447,Tl2(PbO3)3,0.0,0
mp-1042286,Co(SiO3)2,0.8842000000000001,0
mp-3286,Ce(AlZn)2,0.0,0
mp-22151,BaGePt,0.0,0
mp-775201,Cr3Fe(PO4)6,0.0,0
mp-541600,RbLaTa2O7,2.2853000000000003,0
mp-27331,K3GeTe3,1.0607000000000002,0
mp-541966,KAgCO3,2.2109,0
mp-13164,Ti2Pd,0.0,0
mp-557080,SiH17S3N5,3.344,0
mp-28988,In7Br9,1.5437999999999998,0
mp-28832,Mn5As4,0.0,0
mp-24468,H8S(NO2)2,5.072699999999999,0
mp-31980,LiMn(PO3)4,0.6489,0
mp-5866,MnCuSb,0.0,0
mp-5280,In2Ge2O7,1.7955,0
mp-28364,Rb2CdO2,1.3087,0
mp-559281,Na3Cr2(PS4)3,1.2925,0
mp-1020647,Sr2LiBeB3O8,4.7198,0
mp-1072,Nb5Ga13,0.0,0
mp-504747,V2Cu3O8,0.0049000000000001265,0
mp-23831,NdHSO5,5.5593,0
mp-540391,CoPO4,1.0241,0
mp-13718,NaCd4(PO4)3,2.479,0
mp-568020,Tl3SiTe3,1.0854,0
mp-771325,Dy2Cu2O5,0.3416000000000001,0
mp-675010,CsHgCl3,2.0663,0
mp-1002569,MgMnO2,0.7773000000000003,0
mp-14862,SrCu(Si2O5)2,0.8594999999999997,0
mp-770562,Li6AlCrO6,2.9988,0
mp-583072,S,2.4349,0
mp-15641,CaMgGe,0.0,0
mp-4107,Li(CoGe)6,0.0,0
mp-699477,NaH6RuN(ClO)4,0.2793000000000001,0
mp-15186,Er(CuO2)2,0.0,0
mp-19992,La6UO12,1.9808999999999992,0
mp-989466,B2(CN2)3,1.9254999999999995,0
mp-2131,SrN6,3.7752,0
mp-1016825,HfMgO3,0.7745000000000002,0
mp-7124,TbSiPt,0.0,0
mp-768084,Li8V11O22,0.8115000000000001,0
mp-9951,MnNbGe,0.0,0
mp-625420,AlHO2,4.8339,0
mp-16236,KAgSe,0.4838,0
mp-707792,H2Ru3C8SO8,2.2268,0
mp-43114,Ca3TiAl2Si3O13F2,3.0993,0
mp-22463,TiInNi2,0.0,0
mp-568889,Ag2Se,0.0,0
mp-973185,ScAgO2,2.0645,0
mp-755367,LiTa2CuO6,0.8805999999999994,0
mp-862372,Sc2RuRh,0.0,0
mp-560616,KCO2,2.7324,0
mp-29095,H4SO5,5.7206,0
mp-556195,Na2AlB(As2O7)2,2.7451,0
mp-974774,Rb3Tc,0.0,0
mp-554754,Na2Zn(SO4)2,4.4697,0
mp-30758,Li2MgPb,0.0,0
mp-637308,Ce5Sn3,0.0,0
mp-31278,Ca3(Bi2Pd)4,0.0,0
mp-674338,K16Zr12Se61,1.3747,0
mp-5443,Nb2SnC,0.0,0
mp-23703,LiH,2.9737,0
mp-680057,Sb3Pd8,0.0,0
mp-707839,SiH14(O2F3)2,6.9742999999999995,0
mp-651786,Ca5MnSi9(Pb3O11)3,2.8158,0
mp-567655,Sr2C(NCl)2,4.2023,0
mp-736390,SrH3C3O7,2.8362,0
mp-20979,TmMgIn,0.0,0
mp-997027,AuO2F,0.9531000000000001,0
mp-13100,MoPt3,0.0,0
mp-705520,Sn3H4(NO5)2,2.657,0
mp-752881,Li2CuS2,0.0,0
mp-10251,LiDyO2,3.9642999999999997,0
mp-1666,Th2S5,1.7022000000000004,0
mp-546295,Sr2CuOsO6,0.0,0
mp-973256,LaMgTl2,0.0,0
mp-777897,Li4Ti2V3Cu3O16,0.0,0
mp-765457,LiMnF3,2.9514,0
mp-542185,NaCu4(AsO4)3,0.0,0
mp-1762,ErRh2,0.0,0
mp-556841,LaTmS3,0.8731,0
mp-19011,Ba2NiTeO6,2.3261,0
mp-1027510,MoW(SeS)2,0.5579999999999998,0
mp-19819,GdIn,0.0,0
mp-762270,Li2Cu2F5,0.07329999999999992,0
mp-767140,Sn2P2O7,3.0579999999999994,0
mp-560703,Te3As2S(OF6)2,2.0234,0
mp-30183,ZrAl5Ni2,0.0,0
mp-30077,K2GaSb2,1.1041999999999998,0
mp-973904,HfCr2,0.0,0
mp-1747,K2Te,2.1383,0
mp-974842,KPtO3,0.0,0
mp-743656,Na2MgB12(H4O7)4,3.2228,0
mp-4409,Cu(RhO2)2,0.0,0
mp-2173,P2O5,4.8374,0
mp-631567,AgAsRu2,0.0,0
mp-867220,LiTm2Ir,0.0,0
mp-608398,NbSNCl6,1.8154,0
mp-774246,Nb9VO25,1.9967,0
mp-19024,HoVO3,1.5710000000000006,0
mp-733729,RbInPHO5,3.3688000000000002,0
mp-3411,Tl(MoSe)3,0.0,0
mp-294,UO3,1.8558000000000003,0
mp-780130,Mn3Cu2Ni(PO4)6,0.0,0
mp-675100,Nd2PbSe4,1.6597000000000004,0
mp-30512,CeTlPd,0.0,0
mp-765360,Ni(Pt3O4)4,0.0,0
mp-21625,Y2(Ga3Co)3,0.0,0
mp-1343,NdNi2,0.0,0
mp-589,TbFe2,0.0,0
mp-1018891,PdCl2,0.7861999999999999,0
mp-557072,Ba3TiNb4O15,2.4151,0
mp-27945,BiO,0.0,0
mp-1046496,SrCaFe(PO4)2,3.8247999999999998,0
mp-10006,TlAgTe2,0.0,0
mp-2895,Mg2SiO4,4.6395,0
mp-759686,BeAlSiHO5,5.360499999999999,0
mp-19140,K3MnO4,1.9806000000000001,0
mp-1006878,BaO2,2.1125,0
mp-7239,PrMgGa,0.0,0
mp-754335,Ga3NO3,0.8802999999999999,0
mp-631497,BeInBi,0.0,0
mp-20066,CO2,6.6332,0
mp-697797,V(PO3)4,1.147,0
mp-1044444,BaCaV4O8,0.9838,0
mp-567903,ZnNi,0.0,0
mp-675989,Tl9BiSe6,0.7462999999999997,0
mp-570232,TbCl3,4.5211,0
mp-849513,Fe2Sb(PO4)3,2.229,0
mp-108,U,0.0,0
mp-22709,TaNiB2,0.0,0
mp-1535,TbSi2,0.0,0
mp-527,BaCd,0.0,0
mp-504605,Na2SiH16O11,4.4711,0
mp-17769,YSO4F,5.8491,0
mp-985570,SiO2,5.599,0
mp-983556,Er2MgTl,0.0,0
mp-7891,Mg3As2,0.8711000000000002,0
mp-543028,Tl2TeO3,1.9408000000000003,0
mp-7878,Ca(AgGe)2,0.0,0
mp-1014332,C3N,0.0,0
mp-11029,Y(Al2Cu)4,0.0,0
mp-24313,ZnH6(CO3)2,4.4692,0
mp-989191,SbOF,1.8582,0
mp-10892,MnAlPt,0.0,0
mp-1018150,NbTe2,0.0,0
mp-779884,Sr5W3O14,2.4118000000000004,0
mp-649601,RuXeF11,0.30500000000000016,0
mp-11236,MgZnAg2,0.0,0
mp-775820,Ti2N2O,0.9737,0
mp-740731,Al2H12(SeO5)3,4.6404,0
mp-3427,LiAlO2,4.5899,0
mp-29178,TePbF6,4.6008000000000004,0
mp-773049,K3LiNb6O15,0.0,0
mp-560022,Ba9Nb2CN10O,1.7837999999999998,0
mp-560322,K2RuN3Cl3O5,2.0797,0
mp-556569,SrTa2Bi2O9,1.5824,0
mp-251,TaN,0.0,0
mp-1043306,MgCu(Si2O5)2,0.8092999999999999,0
mp-21699,BaLa2In2O7,2.4620000000000006,0
mp-21532,La2Ge2O7,3.5542000000000002,0
mp-20088,Na4PbO4,1.2998000000000003,0
mp-632692,LiFe4(PO4)4,0.7423000000000002,0
mp-24150,LiNd2HO3,1.8718999999999997,0
mp-559757,Ba3Cu2(ClO2)2,0.16800000000000015,0
mp-36529,Na3(WO3)10,0.0,0
mp-11266,BaCd2,0.0,0
mp-759287,LiCu2PO4,0.21689999999999987,0
mp-880,Pr2Fe17,0.0,0
mp-600004,SiO2,5.4296,0
mp-16052,Ba(Cu2As)2,0.0,0
mp-554762,KXeO3F,2.8936,0
mp-10228,NbSe2,0.0,0
mp-23539,KSn2Cl5,3.0071,0
mp-1349,SrPt2,0.0,0
mp-555971,ZnAs2C12(NF)12,4.0887,0
mp-17659,Mg23Al30,0.0,0
mp-18961,ScCrO3,2.4812000000000003,0
mp-620571,CaInPd,0.0,0
mp-570698,V3Au,0.0,0
mp-13862,B13P2,0.0,0
mp-568908,TiAs,0.0,0
mp-744672,Ca2Mn2Si4H6O17,0.16849999999999987,0
mp-15431,Na2Ga2As3,1.0249000000000001,0
mp-12442,KAuF6,2.1117,0
mp-1017508,LuTlTe2,1.5741,0
mp-504751,AsHPbO4,2.9932000000000007,0
mp-10516,Dy6FeTe2,0.0,0
mp-1047202,Mg2FeWO6,2.3712999999999997,0
mp-862924,PmInPd2,0.0,0
mp-760533,SmZr4O9,0.0,0
mp-1030354,Te4Mo3WS4,0.33930000000000016,0
mp-567781,Cs3Zr7BCl20,1.1953999999999998,0
mp-1634,MoSe2,1.4177000000000004,0
mp-29788,KTb3F12,0.0,0
mp-760188,Nb3O7F,2.2294,0
mp-754158,KNdO2,3.7108,0
mp-1961,TiAg,0.0,0
mp-775290,Li4Nb2Cr3Cu3O16,0.0,0
mp-972733,Si3B,0.0,0
mp-560549,AuSeClO3,1.3433000000000002,0
mp-10889,La3Al,0.0,0
mp-24694,Zn(H2N)2,2.3711,0
mp-974467,Ru3Cl,0.0,0
mp-768185,Ba4Li4Ti19O44,2.2457000000000003,0
mp-675284,Lu2TiO5,2.4391,0
mp-24239,K(BH)6,5.5283999999999995,0
mp-30641,Y6Fe23,0.0,0
mp-774762,Li2Cu2S3,0.0,0
mp-22256,NdMnSi,0.0,0
mp-1018106,YbBiPt,0.0,0
mp-763464,Zr4MnO9,2.9462,0
mp-29614,KEu2I5,1.2522000000000002,0
mp-694873,SrLaNiRuO6,0.3948999999999998,0
mp-567723,Nd(NiAs)2,0.0,0
mp-703272,K5NO4,0.0,0
mp-20271,LaAgSb2,0.0,0
mp-505659,Rb2NaMn(CN)6,0.0,0
mp-1554,KTe,0.20389999999999997,0
mp-973250,KLa3,0.0,0
mp-773525,LiFe3O4,0.7842000000000002,0
mp-3257,KAuSe5,1.0431,0
mp-976126,K3Rh,0.0,0
mp-4628,ZrSiSe,0.0,0
mp-38442,CsNd5Se8,1.6224999999999996,0
mp-567956,GaSe2NCl6,1.6414,0
mp-643738,Eu(MgH3)2,0.0,0
mp-995216,RbSrSiHO4,4.0584,0
mp-3200,Lu2Ti2O7,2.5102,0
mp-579909,C,0.0,0
mp-1017,Zr3O,0.0,0
mp-27483,Li5TlO4,1.6600000000000001,0
mp-974326,OsRu3,0.0,0
mp-1018642,Y(CuS)2,0.0,0
mp-27556,CsNbO3,3.319,0
mp-19231,Mn(SbO2)2,1.6341999999999999,0
mp-1020716,Rb3B(SO4)3,5.1274,0
mp-757073,Ba4LiY2Cu5O14,0.0,0
mp-769003,BaY3Cl11,3.7241999999999997,0
mp-622041,ThInAu2,0.0,0
mp-555253,La5Ti2AgS5O7,1.5128000000000004,0
mp-772096,TmTe3O8,0.0,0
mp-560874,BaPb2C2(O3F)2,4.0572,0
mp-1030616,Te4Mo3WSe4,0.06709999999999994,0
mp-11272,Be2Nb3,0.0,0
mp-22131,SmGa4Co,0.0,0
mp-17872,Ba(YTe2)2,0.8059000000000003,0
mp-5803,NbPO5,2.1631,0
mp-777551,LiVF3,2.6788,0
mp-618968,UMoO5,0.03629999999999978,0
mp-680248,Os5(CO)16,1.9933,0
mp-605790,Ba,0.0,0
mp-763206,Co3OF5,0.8431,0
mp-474,ErFe2,0.0,0
mp-5367,K5SnSb3,0.5167000000000002,0
mp-10607,Lu3TlC,0.0,0
mp-765509,LiV(OF)2,2.0856,0
mp-752863,K4N2O5,0.08139999999999992,0
mp-1030578,TeMoWSe2S,0.0,0
mp-680747,K4(BSe)9,2.2415000000000003,0
mp-673658,H2O,5.0638000000000005,0
mp-677732,NdTi2CdO6F,1.3965999999999998,0
mp-10552,RbBSe3,1.6415,0
mp-983152,Li3Re,0.0,0
mp-1028698,WSe2,1.1997000000000002,0
mp-554282,Lu3B5O12,5.426500000000001,0
mp-694891,KRb2Mo(OF)3,3.0236,0
mp-555692,Rb2CO3,3.2555,0
mp-27752,Na6Ge2S7,2.4264,0
mp-29692,K2TeS3,2.3316,0
mp-2052,ScAs,0.0,0
mp-567443,Sc4Si7Ni12,0.0,0
mp-698191,NaCaB5H16O17,2.9061,0
mp-11438,Sc(GaFe)6,0.0,0
mp-770862,Li2Cr2O7,2.4529,0
mp-3359,Ba2SnO4,2.4421999999999997,0
mp-768599,LiCuCSO7,0.0,0
mp-643002,Mg2H6Os,3.3481,0
mp-1009,SrSi6,0.0,0
mp-555852,Rb2Ag2GeS4,1.907,0
mp-556936,CsBa(BO2)3,4.0415,0
mp-570959,Dy2CdSe4,0.5865,0
mp-1352,ZrN,0.0,0
mp-7502,K2Sn2O3,1.2308999999999997,0
mp-540592,Fe2(TeO3)3,2.1372000000000004,0
mp-867115,LiCd2Rh,0.0,0
mp-683887,Ba5Na2Ru3O14,0.0,0
mp-631280,MnTcOs,0.0,0
mp-1043529,MgMn3(P2O7)2,3.4299,0
mp-766365,BaCaI4,3.5357000000000003,0
mp-1042508,CaTiAs2O7,2.6932,0
mp-764013,Li5V3CrO8,0.7180999999999997,0
mp-18157,SiP2O7,5.788,0
mp-862664,Rb2Zr2O5,1.692,0
mp-640885,Er(CuTe)3,0.3838999999999997,0
mp-568570,CsSnI3,0.6174999999999997,0
mp-676611,Bi7(S3Cl)3,0.9489000000000001,0
mp-758233,Nb9PO25,2.0823,0
mp-628781,GeTe,0.0,0
mp-985572,LiAg(CO2)2,2.5039,0
mp-29227,TlV5S8,0.0,0
mp-839,V3Au,0.0,0
mp-676456,Sr6La2Ta3Al5O24,3.5058000000000007,0
mp-12231,SnTe3O8,2.9250999999999996,0
mp-775866,Zr2N2O,1.7744999999999997,0
mp-21415,Dy(NiGe)2,0.0,0
mp-3054,Li2CO3,5.0573999999999995,0
mp-603609,AlH20Ru(Cl3O5)2,0.0017000000000000348,0
mp-541146,Ge2C2(SeF2)3,2.4208,0
mp-862376,Sc2CuTc,0.0,0
mp-643702,Cs3ZnH5,2.7476,0
mp-568006,DyFe5,0.0,0
mp-653788,MnC4IO4,2.3529999999999998,0
mp-569855,MoCl5,0.0,0
mp-776259,Hf2N2O,2.0534,0
mp-554852,Y2Te5O13,2.9944999999999995,0
mp-3499,MnSbPd2,0.0,0
mp-505158,CsHoS2,2.1354,0
mp-7770,Sr(ZnAs)2,0.25660000000000016,0
mp-542948,CsYbCoSe3,0.0,0
mp-765357,Li3V2(OF)3,1.2123000000000002,0
mp-557953,Hg3TeO6,0.6009,0
mp-557057,NbO2,0.16549999999999976,0
mp-4192,Ca3AsN,0.8940000000000001,0
mp-556002,Li6Cu(B2O5)2,0.7482,0
mp-29393,UNb2O7,0.0,0
mp-759116,YbAlO3,0.0,0
mp-582185,Cs12Nb(In2As3)3,0.8098999999999998,0
mp-975972,PrLuMg2,0.0,0
mp-768083,Li5La3Nb14O42,0.0,0
mp-680046,CdI2,2.3373,0
mp-2674,YPt2,0.0,0
mp-22926,LaBi,0.0,0
mp-973634,Ho(AlC)3,0.0,0
mp-640357,Al2SiO5,4.0596,0
mp-865472,VSiTc2,0.0,0
mp-619067,U3Cu2S7,0.0,0
mp-1028525,Te2MoW3(Se2S)2,0.0,0
mp-33406,La2PbSe4,1.8284000000000002,0
mp-3792,YAlO3,5.5402,0
mp-28716,Na2CrCl4,0.7107999999999999,0
mp-28395,B6P,2.4757,0
mp-29331,KH3F4,7.363700000000001,0
mp-17560,Na2UO4,2.0732000000000004,0
mp-698690,NaCaGaSi2O7,3.1210999999999998,0
mp-766006,In15SnO24,0.0,0
mp-555996,CIN2(O2F)3,3.3350999999999997,0
mp-674436,NdZr9O20,0.0,0
mp-19147,NiCO3,3.4031000000000002,0
mp-1044895,Mg(AgO2)2,0.0,0
mp-780086,Li8Mn(O2F)2,2.6208,0
mp-774463,Li3Cr2(PO4)3,2.8011,0
mp-29237,Tl2SnSe3,0.9887000000000001,0
mp-568259,TaSi2PH18C6(NCl3)2,3.1119,0
mp-757716,LiTi(Si2O5)2,0.38400000000000034,0
mp-7097,ThAs2,0.0,0
mp-764428,Li12Cr5O16,0.5859999999999999,0
mp-3601,BaUS3,0.0,0
mp-23403,SbIF5,0.5522,0
mp-619064,PrMnGeO5,1.0943999999999998,0
mp-4309,BaGa4S7,2.5800000000000005,0
mp-22435,CeBPt3,0.0,0
mp-1027152,Te6Mo3WS2,0.03149999999999986,0
mp-7477,RbErO2,3.6465999999999994,0
mp-31089,Ho2Pd2Pb,0.0,0
mp-30380,GaAu2,0.0,0
mp-766506,Li3CuS2,2.0526000000000004,0
mp-569563,Ba3Zr6BeCl18,1.0267999999999997,0
mp-19468,YCo(BO2)5,3.115,0
mp-4533,Na2SiO3,3.8657000000000004,0
mp-757165,Li5FeS4,0.0,0
mp-778314,LiVF4,0.0,0
mp-18622,Hf7P4,0.0,0
mp-560186,BaMgSiO4,4.113899999999999,0
mp-1412,Ti3Sb,0.0,0
mp-764245,Mg7Mn5O12,1.3786999999999994,0
mp-28627,K4Br2O,0.9912,0
mp-36086,Li3NbO4,1.0370999999999997,0
mp-644330,H8C3N2O,1.7439,0
mp-603575,KFe3H6(SO7)2,0.39319999999999977,0
mp-1006068,Gd2AgRh,0.0,0
mp-776751,Li4V5Co3O16,1.2870999999999997,0
mp-696735,H2O,5.468999999999999,0
mp-28381,Cs3InO3,2.1174,0
mp-770550,Li2AlCoO4,1.6962000000000002,0
mp-569871,Tm6CoBi2,0.0,0
mp-753268,Li6CuF8,0.4052,0
mp-1020159,Na2Si(S2O7)3,5.3318,0
mp-9844,BaAl2B2O7,4.6477,0
mp-540292,LiCrPO5,0.17789999999999973,0
mp-557679,KNaSi2O5,4.2837,0
mp-19889,ThPb,0.0,0
mp-706921,H2RhN2Cl5O,0.0,0
mp-1028643,Te3MoWS,0.025799999999999823,0
mp-21451,Ba2SmCu3O7,0.0,0
mp-680436,Rb2LiSn4,0.9014000000000002,0
mp-1019604,Cs2B2S3O13,5.8455,0
mp-756565,Li2Ti7O15,1.4827999999999997,0
mp-19786,UCoAs2,0.0,0
mp-560685,K2Ge(IO3)6,3.1645,0
mp-531296,Ge(PbS2)2,1.9788000000000001,0
mp-672295,Cu4Bi5PbS11,0.0,0
mp-9035,NaLuS2,2.3992999999999998,0
mp-760311,Na7SbO6,1.7517,0
mp-32528,Li3V3(PO4)4,2.0374,0
mp-3975,K2TaF7,5.608499999999999,0
mp-22486,Tb(MnGe)2,0.0,0
mp-14854,Sr2LiIn(B2O5)2,3.7657999999999996,0
mp-556662,SiO2,5.5589,0
mp-1551,Te2Ir,0.0,0