mp_id,formula,band_gap,fidelity
mp-695043,K4PH5Se3O16,3.7687999999999997,0
mp-27612,BH7N2,5.6370000000000005,0
mp-757383,LiSiBiO4,3.0934999999999997,0
mp-3404,RbSO3,5.0191,0
mp-28866,Te2OsCl12,0.0,0
mp-540900,B2PdO4,0.7786,0
mp-4692,Dy(SiNi)2,0.0,0
mp-720874,PH5NO4,5.6995000000000005,0
mp-27172,Cs3In2Cl9,3.4583999999999997,0
mp-770502,Li6Cr3Co(PO4)6,1.6342,0
mp-14050,Ca3Ga2(SiO4)3,4.2496,0
mp-1048924,FePO4,0.9477,0
mp-570180,YbPt,0.0,0
mp-556341,Ti4S8Br6O,1.3934,0
mp-568692,In4Br7,2.2604,0
mp-1047912,BaMgNiF7,1.6007,0
mp-28266,P2Pd,0.4579000000000004,0
mp-17447,Sr10P6SO24,3.5439999999999996,0
mp-570990,Cs2MoCl6,0.0,0
mp-973066,ScGeRh2,0.0,0
mp-568144,Dy5In3,0.0,0
mp-4663,Yb2CdPd2,0.0,0
mp-1028576,Te8MoW3,0.5643000000000002,0
mp-562001,Cs11O3,0.0,0
mp-331,ScAl,0.0,0
mp-760370,Bi6O5F8,2.9856000000000003,0
mp-1045396,Y(CoS2)2,0.0,0
mp-995192,RbBaSiHO4,3.9077999999999995,0
mp-1014444,Cr3N2,0.0,0
mp-13938,Sr2DyReO6,0.0,0
mp-977453,Ca2CdIn,0.0,0
mp-560239,K3Ti3(PO4)5,2.5785,0
mp-5214,TiTe3O8,2.7258,0
mp-600190,LaH24C3N3(Cl2O)3,4.1757,0
mp-989404,Ca6In2NF,0.0,0
mp-29820,Ca3(AlN2)2,2.1954000000000002,0
mp-557784,LaNbTeO6,3.2977999999999996,0
mp-435,ThSn3,0.0,0
mp-676191,Sc11Nb3O24,3.0254000000000003,0
mp-1029021,Te2MoWSeS,0.0,0
mp-570442,Th6Mg23,0.0,0
mp-2545,YbHg,0.0,0
mp-677072,Ca(InTe2)2,0.6854999999999993,0
mp-36915,K6Fe2O5,1.314,0
mp-770401,SbPO4,3.342,0
mp-4394,Pr2Sn2O7,2.6358000000000006,0
mp-554553,Ho3CuSnS7,1.4608999999999996,0
mp-769391,Ba4ZrO6,3.1542000000000003,0
mp-3388,U(SiRu)2,0.0,0
mp-3050,Y3Al5O12,4.4951,0
mp-867159,SmDyMg2,0.0,0
mp-30218,Ti2P,0.0,0
mp-355,Nd5Si4,0.0,0
mp-542614,VCo3,0.0,0
mp-1478,Cu4O3,0.0,0
mp-570835,NiHg4,0.0,0
mp-774455,Na4P3H3O11,5.0015,0
mp-11790,LaCuSe2,0.8799000000000001,0
mp-864797,NdCrSe3,0.0,0
mp-998860,Al,0.0,0
mp-622209,Al3Ni,0.0,0
mp-29327,SmBrO,4.5207,0
mp-29391,SbCl3F2,1.8283,0
mp-19063,ErCrO3,2.51,0
mp-769928,Li4NbV3O8,0.0,0
mp-29153,Zr2NiP,0.0,0
mp-1046203,Mg2Ta2WO8,0.6292,0
mp-1021666,AlSi,0.0,0
mp-4941,Sr2SnO4,2.7047999999999996,0
mp-976588,HoTh3,0.0,0
mp-629080,Fe2C9O7F4,2.4193,0
mp-764103,Mn6O7F5,0.0,0
mp-1025740,MoW2(Se2S)2,0.8536999999999999,0
mp-1880,SbF3,4.4380999999999995,0
mp-556530,LaSc3(BO3)4,3.9049,0
mp-1047867,Ba2YTi3O7,0.0,0
mp-763427,V4O7F5,1.5181,0
mp-1028598,Te3W2Se,0.30849999999999955,0
mp-29169,Cd(AuF4)2,1.7605,0
mp-972569,Sm(MnAl2)4,0.0,0
mp-582483,Na2Th(PO4)2,4.9462,0
mp-753649,LiZrPCO7,4.1552,0
mp-133,Sb,0.0,0
mp-1088,YbGa4,0.0,0
mp-23611,BaTa2Bi2O9,1.9158,0
mp-778616,VO2F,1.4668,0
mp-1045637,AlCu3(BiO3)4,0.0,0
mp-554774,RbLu(SO4)2,5.8838,0
mp-995220,H4C2O,4.8772,0
mp-865592,Y2ZnRu,0.0,0
mp-767063,Sn(PO3)2,3.5944,0
mp-570779,Pr3OsI3,0.17029999999999923,0
mp-684934,U5O11,0.0,0
mp-973824,LiHg3,0.0,0
mp-21713,K2In3CuSe6,0.7267000000000001,0
mp-646426,U2InPd2,0.0,0
mp-754197,NdO,0.0,0
mp-778326,Ti3FeNi2(PO4)6,0.6998000000000002,0
mp-781864,LiCu2F5,0.4978999999999998,0
mp-636498,In3Ir,0.0,0
mp-673624,MgNb2(PbO3)3,2.1362000000000005,0
mp-616204,Ga3Cl7,4.1427,0
mp-13748,Cs3SiF7,5.633800000000001,0
mp-757947,Li2Sn(PO3)5,0.11250000000000027,0
mp-4124,CaCN2,3.5804,0
mp-1018125,Ti2Re,0.0,0
mp-13755,BaNa(PO3)3,5.3055,0
mp-30890,Hg3SO6,0.5677999999999999,0
mp-1048411,Mg2Nb2BiO8,0.0,0
mp-510691,Hf5Sn4,0.0,0
mp-561396,Li3CrF6,3.9644000000000004,0
mp-686801,Al6ZnP4(H4O7)4,2.2676,0
mp-19967,LuMnSi,0.0,0
mp-685044,Yb16S29,0.0,0
mp-759624,Li3Bi(PO4)2,3.9119,0
mp-697139,PHN2,4.732799999999999,0
mp-3759,MgGeO3,3.6483000000000003,0
mp-662802,Os6C19SO19,1.7127,0
mp-1328,SrRh2,0.0,0
mp-505747,TlIn5S6,1.0,0
mp-867821,TaTiMn2,0.0,0
mp-29804,Cr3GeC,0.0,0
mp-851033,LiCo3OF5,2.0078,0
mp-773188,Na3MnBSO7,2.4280999999999997,0
mp-759209,Ag2SnO3,0.0,0
mp-16818,Rb2Cd3Se4,1.4123,0
mp-504644,KCeF4,0.0,0
mp-676227,Nd2Th2O7,2.6771,0
mp-774297,Li3MnV(PO4)3,0.0,0
mp-4853,CaSiO3,3.5088,0
mp-1018053,InCu,0.0,0
mp-569662,V2NiSe4,0.0,0
mp-696403,BHO2,6.0887,0
mp-979936,RbYb3,0.0,0
mp-555097,Tb3Si2Cl5O6,4.6895999999999995,0
mp-23688,RbH3(CO2)2,4.8136,0
mp-1761,LuIr2,0.0,0
mp-755328,ZrSn2,0.0,0
mp-5145,Ag3AsSe3,0.8452999999999999,0
mp-27413,Mo8P5,0.0,0
mp-625513,Te(HO2)2,1.7656,0
mp-510422,SiNi2P,0.0,0
mp-505539,Cr5As3,0.0,0
mp-6661,BaTi(SiO3)3,3.0637000000000003,0
mp-22512,Sr2In2O5,0.9984999999999999,0
mp-27236,Sb2I2F11,0.0,0
mp-567373,LaCN2Cl,3.2001999999999997,0
mp-975144,RbZn4As3,0.0,0
mp-101,Ir,0.0,0
mp-1041506,Zn(SnO2)2,1.2281999999999993,0
mp-752949,BiOF,3.2937999999999996,0
mp-16577,Li2CaHfF8,6.9952000000000005,0
mp-1927,Dy4Sb3,0.0,0
mp-569600,Ge3As4,0.15479999999999983,0
mp-17287,TaTe4Ir,0.0,0
mp-771220,Li3Ti(CoO3)2,0.0,0
mp-18532,HoPS4,2.1506999999999996,0
mp-697761,MnPO4,1.1500000000000001,0
mp-685980,NiMo3S4,0.0,0
mp-1010953,MgNi,0.0,0
mp-548609,Tl2Cu(SO3)2,0.14369999999999994,0
mp-10854,Tb(BC)2,0.0,0
mp-672205,Ce(C2N3)3,0.1972999999999998,0
mp-30247,Mg(HO)2,4.1796999999999995,0
mp-626726,BaH4O3,3.9287,0
mp-707208,H8C2SeS2(N2Cl)2,2.8516999999999997,0
mp-23465,Cs2TeCl6,2.7815000000000003,0
mp-556374,K2U3(IO5)4,1.8921000000000001,0
mp-1041961,CrO2,0.35179999999999995,0
mp-1016928,MgSiO3,2.557100000000001,0
mp-16493,YAl2Co,0.0,0
mp-29302,Ba3(GaS3)2,2.6755000000000004,0
mp-7857,TiB,0.0,0
mp-776362,Zr2N2O,1.5772999999999997,0
mp-675618,Sr2RuO6,0.41900000000000004,0
mp-558692,Sb2ClO2F11,1.8464,0
mp-978824,Sm2RuAu,0.0,0
mp-1042245,Ca(MoO2)2,1.9830999999999999,0
mp-756631,Nb2P2O9,0.0,0
mp-7971,Ba4Li(SbO4)3,1.4543999999999997,0
mp-707788,NaCaB5(H5O7)2,4.9825,0
mp-510623,Fe3C,0.0,0
mp-997020,CuClO2,0.6518,0
mp-554765,BaSb2F12,4.0459,0
mp-558894,Ba4Ti2PtO10,1.9973,0
mp-556383,PCF3,3.2147,0
mp-505597,Tb(Ni2P)2,0.0,0
mp-5468,Na3AlF6,5.8904000000000005,0
mp-29576,Cd7P10,1.2371000000000003,0
mp-1047451,Ti3AlF15,2.8938,0
mp-755491,Sr2Ti6N2O11,2.1566,0
mp-605052,PH3W(CO)5,2.8337,0
mp-758520,LiCuPO4,0.008199999999999985,0
mp-5670,LiTi2O4,0.0,0
mp-761572,Li2TiCoO4,0.18149999999999977,0
mp-651724,Fe2Te2Ru2(CO)11,1.6949,0
mp-697317,Rb2YTi(PO4)3,2.5453,0
mp-781625,BaOsO3,0.0,0
mp-1018130,PaC2,0.0,0
mp-9251,TlTe3Pt2,0.0,0
mp-30529,B5H11,4.7463,0
mp-675920,Ti6AgS12,0.0,0
mp-17750,Pr2SiTeO4,2.0843999999999996,0
mp-776691,Li3VF5,2.7168,0
mp-865184,LiScPd2,0.0,0
mp-21466,Ca2RuO4,0.0,0
mp-27615,U(PO3)4,0.2829999999999999,0
mp-630641,Sr2FeClO3,1.1226000000000003,0
mp-634378,NaHSO4,5.487,0
mp-1041362,Zn(NiO2)4,0.2625000000000002,0
mp-570727,SbCNCl6,1.9674999999999998,0
mp-12055,LaCd2,0.0,0
mp-561249,Ba17Er16Zn8Pt4O57,2.3049,0
mp-673650,Lu2Se3,1.7495999999999996,0
mp-556517,K2PbO2,1.9201,0
mp-999376,NbPt,0.0,0
mp-28056,P2Rh3,0.0,0
mp-980195,Tm6Al7Cu16,0.0,0
mp-9675,Cs3BP2,1.6973,0
mp-752878,LiAg2F4,0.18049999999999988,0
mp-4577,Y3(AlNi3)2,0.0,0
mp-557472,K2Be2(SiO3)3,4.809900000000001,0
mp-1041643,AlSb(WO4)2,1.6134000000000004,0
mp-1042954,MgSn(GeO3)2,2.2264000000000004,0
mp-562283,GePb3O5,1.6284,0
mp-28550,Hf2Ag3F14,0.15270000000000006,0
mp-709031,Al4P4H11C3NO18,1.029,0
mp-752443,Te(S2O7)2,3.3237,0
mp-553874,Ba2LaAg5S6,1.4623000000000004,0
mp-9889,GaS,1.8596,0
mp-1700,AlN,3.306099999999999,0
mp-1046803,Sb2O3,1.1784000000000008,0
mp-4595,VFe2Si,0.0,0
mp-20187,LiInSe2,1.5731,0
mp-774230,Li4Ti5V3O16,0.6295000000000002,0
mp-27848,TiIN,0.0,0
mp-1047384,BiF5,0.4034,0
mp-623027,Pr2Ga,0.0,0
mp-16828,Li3B7O12,5.6047,0
mp-29089,Sr2GeN2,0.05339999999999989,0
mp-861734,AcZnAu2,0.0,0
mp-1041572,Bi(WO4)2,0.0,0
mp-765701,Li4V3FeO8,1.4867000000000004,0
mp-5940,CeB2Ru3,0.0,0
mp-23711,MgH2,3.6284,0
mp-20137,Dy(GePt)2,0.0,0
mp-756336,CaEu2O3,0.0,0
mp-541609,Y2Ge5Ir3,0.0,0
mp-568791,Ca3SiBr2,0.0,0
mp-1180,MnPt3,0.0,0
mp-1040826,LaVCrO6,0.3919000000000006,0
mp-3019,Tl4SnTe3,0.0037000000000002586,0
mp-10335,Ba2CuTeO6,0.0,0
mp-753139,Li6CuF8,0.0,0
mp-972147,UZn3,0.0,0
mp-11749,Tm5(SiSb)2,0.0,0
mp-1026910,MoW(SeS)2,0.6052999999999997,0
mp-758063,LiTiP2O7,0.2824,0
mp-769962,Li4TiFe3O8,0.6277000000000004,0
mp-754238,Li2CuBiO4,0.0,0
mp-472,UAl2,0.0,0
mp-31091,Lu2Pd2Pb,0.0,0
mp-39460,Ca5P3ClO12,5.3781,0
mp-777789,Na11Bi5O16,0.0,0
mp-1042566,MgCoSb2O7,0.6067,0
mp-31219,Si3W5,0.0,0
mp-569396,BaLi2(MgGe)2,0.0,0
mp-775837,Sc2O3,4.1645,0
mp-643365,KH3C2O3,5.1738,0
mp-29748,TePdI,0.0,0
mp-11008,BaPSe3,2.1557000000000004,0
mp-559441,LiTiPO5,3.0747,0
mp-642398,RbVSO6,1.8148,0
mp-34015,Mg10(Fe3O8)3,0.0,0
mp-7567,UGeO4,0.0,0
mp-558079,Ca3Mg(SiO4)2,3.8228,0
mp-605461,K3UH6C5SNO13,1.6804999999999999,0
mp-768991,Li4Bi2C4SO16,1.9868,0
mp-945,NiPt,0.0,0
mp-768942,Ho2(SeO3)3,3.4041,0
mp-974482,K4Hf5O12,3.268,0
mp-18192,Sr3Sn5,0.0,0
mp-554160,K2CuP2O7,0.2617999999999999,0
mp-541162,Ba2Mg3F10,6.8919999999999995,0
mp-9146,CdHgO2,0.36819999999999997,0
mp-20136,BaPb,0.0,0
mp-10643,SmSe,0.0,0
mp-12586,SmCu,0.0,0
mp-763182,Li2VO2F,1.1566,0
mp-979,ZrSb2,0.0,0
mp-4343,Sr(MnAs)2,0.0,0
mp-19825,Pu2InPd2,0.0,0
mp-757290,MgH12SeO10,3.8902,0
mp-23683,H2CO,6.2385,0
mp-557483,YbClF,6.0554,0
mp-1019609,Cs2Sr2Li3B3(PO4)6,5.6029,0
mp-753156,La2Th2O7,2.9227,0
mp-505622,Mn4N,0.0,0
mp-3826,Ce(SiPd)2,0.0,0
mp-972898,Sc2GaAu,0.0,0
mp-477,SmGa2,0.0,0
mp-694056,BaMg2Al6(Si3O10)3,3.8653,0
mp-696129,Li10Si(PS6)2,2.3830999999999998,0
mp-772064,BaLaCl5,3.5974,0
mp-1027002,Te2MoW3(SeS2)2,0.0,0
mp-863736,Ho2OsAu,0.0,0
mp-30554,PrGaCo2,0.0,0
mp-13843,Li2TeO4,2.2670999999999997,0
mp-29310,Si2H6Se,3.7464000000000004,0
mp-1043129,ZnFe4(CuO4)3,0.0,0
mp-585241,LiBi2(PO4)3,0.5196000000000001,0
mp-567130,Nd(SiIr)2,0.0,0
mp-1018900,PrCuPb,0.0,0
mp-2582,TiSi2,0.0,0
mp-10040,AlPt3C,0.0,0
mp-1048931,LaMgCrNiO6,0.0,0
mp-625104,H2CO2,2.9173,0
mp-755544,YTlO2,1.4748000000000006,0
mp-644483,Ti3SnH,0.0,0
mp-697111,H2O,5.5175,0
mp-699370,Nb2CoO6,1.2889999999999997,0
mp-8211,GaGeTe,0.11869999999999958,0
mp-554761,BaH2C4S4N2(O3F4)3,6.1485,0
mp-849802,Ba2YI7,2.9089,0
mp-28827,Tb3(MnC3)2,0.0,0
mp-27536,UBrO2,0.11479999999999979,0
mp-736545,HgH2C6(NCl2)2,0.0,0
mp-28757,Nd(AlBr4)3,3.3848000000000003,0
mp-17012,Sr2VN3,1.5183999999999997,0
mp-765894,Li5VF8,2.4829999999999997,0
mp-756683,HfBiO4,1.073,0
mp-623862,Rb3Tm2Cu4Br13,1.9138000000000002,0
mp-561001,SINOF2,2.1589,0
mp-621092,Tl2Pt(CN)4,2.5584000000000002,0
mp-560891,SnP2Cl8O3,3.0965,0
mp-15577,Pr4Ga2O9,3.6091999999999995,0
mp-7622,KSO4,3.5193000000000003,0
mp-556012,NaCSN,4.0366,0
mp-12351,PrTe3,0.0,0
mp-10606,Sm3TlC,0.0,0
mp-1041813,AlMo(WO4)2,1.4976999999999991,0
mp-3605,Th(CoGe)2,0.0,0
mp-4559,BaCO3,4.4099,0
mp-631500,BaHfMg2,0.0,0
mp-866221,HfSnRh2,0.0,0
mp-29990,La3B2N5,1.1710000000000012,0
mp-771828,Dy2Zr2O7,4.0207,0
mp-777153,Li2Fe2NiO6,0.0,0
mp-680698,CeSI,0.0,0
mp-505727,NClO,1.9624000000000001,0
mp-1048247,YSn3Se2ClO8,0.5598000000000001,0
mp-706235,NaCa2V3Zn2O12,3.0254000000000003,0
mp-4473,Ba(CuSe)2,0.48629999999999995,0
mp-765277,LiSnPO4,3.2845999999999997,0
mp-12911,Ba2LaRuO6,0.23419999999999952,0
mp-686618,YAl6Si30(N15O)3,2.913000000000001,0
mp-758696,Li2Cu2F7,0.032200000000000006,0
mp-510579,PrNiSnH,0.0,0
mp-669360,CdI2,2.3392,0
mp-16135,Sm3NbS3O4,2.286,0
mp-20343,NaAuO2,1.0651000000000002,0
mp-714929,CrO2,0.3367,0
mp-556039,Na3Y(BO3)2,3.6611000000000002,0
mp-1043033,Ge2BiO6,0.01319999999999999,0
mp-568925,Ni2Sn4Au,0.0,0
mp-569804,Er5Zr3(Ni4As3)4,0.0,0
mp-759798,Bi7(O2F3)3,2.9241000000000006,0
mp-24214,KPH3O4F,5.727499999999999,0
mp-1043092,CaTiNiP2O9,2.9967,0
mp-753437,La5Cu5O13,0.0,0
mp-11115,RbCuPdSe5,0.9872000000000001,0
mp-22116,EuGe2,0.0,0
mp-778251,Li4TiCo2Ni3(PO4)6,2.3268,0
mp-1018629,YPd3C,0.0,0
mp-33322,LiHoSe2,1.5785,0
mp-1044445,CaCoBiO5,0.6493,0
mp-1013760,Sn5(S2Cl)2,1.2428,0
mp-557112,Li4Ga3Si3IO12,3.4396999999999993,0
mp-971752,ZnCr3,0.0,0
mp-570026,ErAgGe,0.0,0
mp-705356,Li2Fe(PO3)5,2.4488,0
mp-997008,TlAuO2,0.0,0
mp-626778,NaHO,3.3035,0
mp-30815,LaAl3Pd2,0.0,0
mp-1018818,NdTeCl,0.41999999999999993,0
mp-7811,SrSO4,3.9294000000000002,0
mp-28583,Si2NCl5,5.0863,0
mp-684503,LiSn(PO3)3,4.206300000000001,0
mp-28737,K2(CuTe)5,0.0,0
mp-867850,ScMnRh2,0.0,0
mp-865129,Lu2MgGe2,0.0,0
mp-29489,P4SeO7,3.5458,0
mp-867267,LiHo2Pt,0.0,0
mp-3474,LaCuO3,0.0,0
mp-640956,Eu(Sb3Os)4,0.0,0
mp-769002,Li2BiO3,0.0,0
mp-1006330,Ce3Cu,0.0,0
mp-770757,Li2MnFe3O8,0.0,0
mp-29898,Tl2Au4S3,1.1304999999999996,0
mp-581922,CsMo3Br3Cl4,2.5856,0
mp-779352,Mn2O3F,0.0,0
mp-557321,As4S3,2.471,0
mp-972931,EuMgO3,0.0,0
mp-21892,Al2PbO4,3.9425,0
mp-708135,YH16C4N9O16,1.9535,0
mp-675299,Ca2SiO4,3.7086,0
mp-694964,Na4MnAl3Si3O16,1.7946,0
mp-984713,Dy3Ga,0.0,0
mp-3020,BaNbO3,0.0,0
mp-19123,Rb2LiVO4,3.965,0
mp-1028848,Te2Mo(WSe2)3,0.0,0
mp-1009830,Be2Zn,0.0,0
mp-1003856,MgMnO2,1.7128999999999994,0
mp-772051,Li3CuSiCO7,0.0,0
mp-1027049,TeMoWSe2S,0.0,0
mp-1009582,NiC,0.0,0
mp-698296,UH12C4SN2O9,2.2077,0
mp-559864,InSb2S4Br,1.5220000000000002,0
mp-13399,Lu(NiGe)2,0.0,0
mp-11634,KSmGeSe4,1.6287,0
mp-28612,Na(LiSi2)3,0.12260000000000026,0
mp-23507,InSn2Br5,2.305,0
mp-22287,NbGeIr,0.0,0
mp-626680,Fe(HO)2,2.3366,0
mp-568008,Rb3Mn2Cl7,0.837,0
mp-601326,Sr6Ge5N2,0.0,0
mp-754519,LiNb(TeO4)3,1.5556,0
mp-698397,SnH24C6N2(OF3)2,4.7044,0
mp-1041433,Ba2YMn3O8,0.0,0
mp-39536,CaC2S2(OF)6,5.9997,0
mp-9062,RbS,1.5613000000000001,0
mp-764102,Li3Fe2(SiO4)2,0.9314,0
mp-771123,ScFeO3,0.9040000000000004,0
mp-995194,KBaSiHO4,3.9285000000000005,0
mp-643158,PH8IN4,4.0455000000000005,0
mp-753444,Li3BiS3,2.2692000000000005,0
mp-1019727,NaEuGeO4,0.0,0
mp-14531,NaNb3O8,2.2455000000000003,0
mp-1026946,Mo3W(SeS3)2,0.4879000000000002,0
mp-714931,VO2,1.2524000000000002,0
mp-698312,K4H4PtC6S2(NO6)2,0.045599999999999974,0
mp-569974,Nd(NiP)2,0.0,0
mp-604702,H10PtC(N4O)2,2.0724,0
mp-31744,Cr3(PO4)4,0.0,0
mp-24589,K2HBrO,3.5292,0
mp-17578,Yb4Ge6Ir7,0.0,0
mp-23950,K(BH)3,5.0099,0
mp-698132,Al2Si2H4O9,4.9007000000000005,0
mp-3756,SmTaO4,4.0324,0
mp-20845,Dy2Sn2O7,2.7123,0
mp-683936,Ba4LaGe3SbSe13,1.2329999999999997,0
mp-12760,Zr6Al2Co,0.0,0
mp-22150,Zr2InCo2,0.0,0
mp-557692,Ba3Tl2Cl2O5,0.0,0
mp-640922,CeInPt,0.0,0
mp-21931,Sc11(AlGe4)2,0.0,0
mp-763358,Fe4OF7,0.8345,0
mp-31202,Pr(SiAu)2,0.0,0
mp-1019558,BaSr2Mg(SiO4)2,4.759,0
mp-555344,Hf2P2O9,4.9036,0
mp-722344,KCa4B22H18ClO46,5.5100999999999996,0
mp-5172,Zr2(Ni7B2)3,0.0,0
mp-11658,Cu2SnSe3,0.0,0
mp-1019054,ReC2,0.0,0
mp-704669,BaYb2(MoO4)4,0.0,0
mp-559550,SiO2,5.6097,0
mp-636287,Eu3(GaNi)4,0.0,0
mp-12791,SmCuSn,0.0,0
mp-8146,SrPuO4,0.0,0
mp-9916,NbCrSi,0.0,0
mp-974866,Rb3Na,0.0,0
mp-771643,Sr2CaI6,3.0769999999999995,0
mp-23730,NaMgH3,3.103,0
mp-865930,TiZnCu2,0.0,0
mp-980905,ZnSn3,0.0,0
mp-1030450,Te4Mo3W(SeS)2,0.0,0
mp-754878,Cu3OF5,0.0,0
mp-3180,Ta2Te2O9,3.1919,0
mp-999296,Pd3N,0.0,0
mp-540707,Cs2Sn(GeO3)3,2.6073,0
mp-29592,RePCl9,0.8379000000000001,0
mp-558330,IClOF,2.0229,0
mp-558995,KCN3O2,3.348,0
mp-1272,Cr3Ru,0.0,0
mp-866668,Rb2SbBr6,0.0,0
mp-9467,NaCa9Mg(PO4)7,5.1503,0
mp-559514,Nd4S3NCl3,3.0831,0
mp-698446,H24PtC8(NF3)2,2.8681,0
mp-567618,Si5Pt12,0.0,0
mp-9381,Zr6FeTe2,0.0,0
mp-21380,PtPb,0.0,0
mp-643001,Na4H6Ru,2.0361,0
mp-7939,NaNbSe2,0.5013999999999994,0
mp-771515,Li6V3W3O16,1.3644,0
mp-770818,Li3Cu5O4,1.3603,0
mp-30672,Ti3Ga,0.0,0
mp-5848,ErZrSb,0.0,0
mp-554996,K5B19O31,5.3537,0
mp-861228,Li3CuS2,2.7548000000000004,0
mp-676518,In3SbTe2,0.0,0
mp-570218,LiBeH3,4.8256,0
mp-8622,Rb2PtSe2,1.0034,0
mp-771255,Cs4SiO4,2.5639,0
mp-16517,TmAl2Ni,0.0,0
mp-23166,NpBr3,0.006800000000000139,0
mp-774191,Fe3OF7,2.5013,0
mp-30311,Zn3(PS4)2,2.4186000000000005,0
mp-1042262,CaMn2O4,0.6429,0
mp-864908,MgTiIr2,0.013099999999999667,0
mp-1743,Mo5As4,0.0,0
mp-3748,AlCuO2,1.8022999999999998,0
mp-773513,Er2(WO4)3,3.9171000000000005,0
mp-16914,Y2Si5Ni3,0.0,0
mp-28950,P4N6O,4.3472,0
mp-13998,Na5AlO4,2.4191000000000003,0
mp-7498,Ti5Te4,0.0,0
mp-699151,Sr6Mg7H26,2.9736000000000002,0
mp-505515,Sr(CuSb)2,0.0,0
mp-1047749,Ba2YSn3O8,0.0,0
mp-8153,NaHgPO4,1.438,0
mp-13472,HfSiRh,0.0,0
mp-15724,KNa2Sb,0.6720999999999999,0
mp-558598,SiO2,0.0,0
mp-975897,Hf2RuRh,0.0,0
mp-1048627,Sr3CaCr2S2O5,1.4213999999999998,0
mp-769060,Bi12BO20,0.0,0
mp-542782,H8C3(NO)3,3.0245,0
mp-1044915,Ba2YNi2F11,4.6917,0
mp-752898,LiCu3F7,0.0,0
mp-542503,La9(SbO)5,0.0,0
mp-13497,Er2Mg,0.0,0
mp-6671,Sm4Si2S3O7,2.5838,0
mp-19746,NbPbS2,0.0,0
mp-555080,PH7CN3O3F,5.0802,0
mp-723020,Al2Si2H5C2NO10,0.0,0
mp-6474,Ba3MgNb2O9,2.6479999999999997,0
mp-675564,La2Th8O19,2.9637000000000002,0
mp-541856,U3TiGe5,0.0,0
mp-8780,Cr2N,0.0,0
mp-1027355,Te4Mo3WS4,0.0,0
mp-772972,Li2Ti2O5,3.7177,0
mp-33546,Fe2CuO4,0.0,0
mp-677095,Na2CaSn2(GeO4)3,2.3158000000000003,0
mp-1027147,MoW(SeS)2,0.6580000000000004,0
mp-972600,UCd(PbO3)2,1.6558000000000002,0
mp-569571,Nb3Sb2Te5,0.8441000000000001,0
mp-565400,ReAsC5SNO5F7,2.2391,0
mp-7608,Li2PdO2,1.1824999999999999,0
mp-21281,Th(MnGe)2,0.0,0
mp-514,HfZn2,0.0,0
mp-850814,NaSbO2,2.7691,0
mp-618991,Cu2S,0.12890000000000068,0
mp-974335,RuRh3,0.0,0
mp-19414,K3CrO4,1.2393999999999998,0
mp-1030235,Te3MoWSe,0.005799999999999805,0
mp-14628,ZnSnO3,1.3277999999999999,0
mp-765702,Mn6O7F5,0.059900000000000064,0
mp-760698,Yb2TiO5,0.0,0
mp-1023129,KCuCl3,0.0,0
mp-1029378,Mg2SbN3,1.3582999999999998,0
mp-1018687,ErS2,0.0,0
mp-29488,Na2ZnO2,1.4556999999999998,0
mp-7698,NdS2,0.0,0
mp-767384,Ba2LiTi11O24,0.0,0
mp-655048,LiAlSiH2O5,4.3331,0
mp-17230,Nb5GaSn2,0.0,0
mp-770128,Cs6Ti2O7,3.333,0
mp-555548,MgAlPO5,4.9741,0
mp-756517,Na3CuBPO7,0.0,0
mp-24087,H4INO4,2.4863,0
mp-684970,Cu19Se11,0.0,0
mp-510412,Si3Ru4,0.0,0
mp-7214,Sr3CrN4,1.5373,0
mp-5766,CeCuS2,0.0,0
mp-19422,Na3VS3O,2.0204,0
mp-559832,Hg3(SBr)2,1.609,0
mp-568553,TlFeBr3,0.0,0
mp-2980,Pr2Te4O11,3.2952,0
mp-24515,RbAl(H2N)4,0.0,0
mp-1018049,LaN,1.7318999999999996,0
mp-1040,RbCd13,0.0,0
mp-1005850,Yb3U,0.0,0
mp-779241,LiCu5(PO4)2,0.08659999999999979,0
mp-861985,Er2IrRh,0.0,0
mp-775910,ZrO2,3.3165999999999998,0
mp-557775,PSN(Cl2O)2,4.0739,0
mp-779269,LiMnF5,1.3083999999999998,0
mp-569842,Ba3SiI2,0.25039999999999996,0
mp-2917,Dy(CuSi)2,0.0,0
mp-9636,CsSbF6,5.0904,0
mp-9872,K4BeP2,1.1402,0
mp-1018762,Li3CeBi2,0.0,0
mp-1403,Sm2S3,0.7441,0
mp-7566,InPO4,2.3413000000000004,0
mp-9036,KSmTe2,1.2623000000000002,0
mp-557680,NbAgO3,0.8148999999999997,0
mp-864913,Na3UF8,0.0,0
mp-23743,AlH12(ClO2)3,5.1391,0
mp-542728,Co21(B3Mo)2,0.0,0
mp-18766,Si(NiO2)2,3.385600000000001,0
mp-27703,InBrO,1.9948,0
mp-27213,AuBr3,0.7908000000000001,0
mp-570213,LiMgBi,0.3618999999999999,0
mp-17485,Ho2Si3Rh,0.0,0
mp-7573,Co(BW)2,0.0,0
mp-15547,Na2ZnGaF7,3.9775,0
mp-19270,TiFeO3,2.0256000000000003,0
mp-971951,Zr3Pt,0.0,0
mp-10229,Nb3Si,0.0,0
mp-18385,Lu2Si2O7,5.199199999999999,0
mp-21198,DyAgSn,0.0,0
mp-559730,KGa(Te3O7)2,2.9741,0
mp-554119,KSnAsS5,1.7082,0
mp-8219,Zr(CuP)2,0.0,0
mp-976263,Li3Nb,0.0,0
mp-569089,Dy(PRu)2,0.0,0
mp-777624,Li9V3(WO4)7,1.5507,0
mp-754671,YScO2,0.0,0
mp-11564,TmRh,0.0,0
mp-28041,Pb9(Br5O2)2,2.9011000000000005,0
mp-30426,BaCdBi2,0.0,0
mp-23526,KClO4,5.539,0
mp-7012,KRb2YF6,6.383100000000001,0
mp-19170,PrNiO3,0.0,0
mp-626256,H3NO4,3.7464,0
mp-23729,NaBeH3,0.9154,0
mp-972601,SmLuMg2,0.0,0
mp-17633,Er2SiSeO4,2.5551000000000004,0
mp-1026912,Te2MoWSeS,0.23860000000000037,0
mp-976582,HfSb3,0.0,0
mp-17187,K3Nd(PO4)2,4.919499999999999,0
mp-1017580,KMgH3,0.0,0
mp-6325,Ba3MgTa2O9,3.2733,0
mp-17709,Na2ZnSiO4,3.1365,0
mp-573763,Cs2Te,1.7740000000000002,0
mp-861951,LiTaRh2,0.0,0
mp-7576,CrSi,0.0,0
mp-1047971,BaCaNiF7,1.9832,0
mp-769597,Li2CoGe3O8,2.4709,0
mp-621112,Cs5Nb2S4Cl9,1.7853999999999999,0
mp-7221,Nb5(AsPd)4,0.0,0
mp-568506,Pr2Ni2I,0.0,0
mp-17897,RbYP2O7,5.0221,0
mp-7693,BaTm2F8,7.2347,0
mp-780764,LiCuP4O11,0.3498999999999999,0
mp-1043218,VZn(GeO3)2,0.0,0
mp-2338,TbZn2,0.0,0
mp-510122,CePu4Co3,0.0,0
mp-22996,SbSeI,1.3775999999999997,0
mp-559010,Sb2OsC4(OF3)4,3.6738,0
mp-979057,Sm2ZnAg,0.0,0
mp-1519,CaTe,1.5535,0
mp-779472,Li5Cu(PO4)2,1.9918999999999998,0
mp-20067,Na5OsO6,0.0,0
mp-540356,LiFe(PO3)4,2.502,0
mp-865882,Li2SmIn,0.0,0
mp-571502,Ga(BiBr)4,1.5866,0
mp-754061,Na3SnPCO7,2.8306000000000004,0
mp-1043064,Zn3Fe4(WO4)6,1.5262000000000002,0
mp-779883,LiV2P4(HO8)2,0.9866999999999999,0
mp-552131,CsClO2,2.3388999999999998,0
mp-675275,Tl2CuF3,1.7879,0
mp-764000,Li3CoOF3,2.1575999999999995,0
mp-1019541,BaCa3O4,2.3279,0
mp-1019280,SrZnPb,0.0,0
mp-769622,Mn9(FeO6)4,0.7598999999999998,0
mp-752459,Gd5Y3O12,3.0149,0
mp-674355,Co(NiS2)2,0.0,0
mp-761614,CoCu(PO4)2,0.005099999999999882,0
mp-504354,LiBi(PO3)4,5.1177,0
mp-767467,Li7Y7Zr9S32,1.0522999999999998,0
mp-23406,Cs2PtCl6,2.1024,0
mp-866108,HfZn3,0.0,0
mp-29802,Sc(NiGe)6,0.0,0
mp-30843,Sr7Pt3,0.0,0
mp-865482,VTc2Ge,0.0,0