mp_id,formula,band_gap,fidelity
mp-1030649,Li6RuN4,0.0,0
mp-334,LaF3,6.0452,0
mp-12919,LaPIr,0.0,0
mp-1022808,Ba2NbFeO6,1.3500000000000005,0
mp-8429,K4IrO4,0.4266000000000001,0
mp-39288,BaLaMgNbO6,2.7808,0
mp-767530,BaNa3PCO7,3.6661,0
mp-27990,B2H5,6.3448,0
mp-639774,Sr,0.0,0
mp-1014252,Hf3ZnN,0.0,0
mp-1025685,Te4Mo3Se2,0.18710000000000004,0
mp-779457,Ge2N2O,1.7353,0
mp-8399,CsCdF3,3.2880000000000003,0
mp-18865,K3(FeO2)2,0.0,0
mp-18651,Sr3DyRhO6,2.1402000000000005,0
mp-1013587,Sr3Bi2,0.0,0
mp-24157,PH8N2O3F,4.7799,0
mp-17650,KGaS2,2.5331,0
mp-19034,Mg3V2O8,3.3068,0
mp-705034,CrPb5O8,1.8799000000000001,0
mp-569209,SbAsPCl13,2.1081,0
mp-30361,Zn8Ag5,0.0,0
mp-1751,ThSb,0.0,0
mp-23398,BClF6,3.3030999999999997,0
mp-772586,Li2Cr2O7,2.4504,0
mp-685022,TePb,0.7206000000000001,0
mp-695592,Ca10Al6Si13N30,1.8136999999999999,0
mp-1043702,CaSi4WO10,2.1854000000000005,0
mp-38970,Ga2Te3,0.6375000000000002,0
mp-505392,Ba3V4O13,2.9455999999999998,0
mp-763186,Li2Mn3SbO8,1.0902000000000003,0
mp-645166,Tb(GaFe)6,0.0,0
mp-555527,Sm3Si2S8Br,2.6144999999999996,0
mp-706269,MgNb5O9,0.0,0
mp-762082,ThH10N4O17,3.5538,0
mp-1026930,Te2MoW3(SeS2)2,0.0,0
mp-980,USi2,0.0,0
mp-7013,Ho2Be2SiO7,5.0869,0
mp-17953,MgNb2O6,3.4118000000000004,0
mp-556536,Na2Zr(CuS2)2,0.007100000000000328,0
mp-685155,ZrCl3,0.0,0
mp-14624,K5P2Au,0.4874999999999998,0
mp-14304,Lu2MgS4,1.9819,0
mp-12759,Zn2CuAu,0.0,0
mp-15660,Nb4C3,0.0,0
mp-555282,Ga2S5N5Cl7,2.5008999999999997,0
mp-30977,B5H6Br,3.0316,0
mp-866376,TiMn2Ge,0.0,0
mp-3491,NbSbO4,2.4311000000000003,0
mp-14928,Sc2MnSe4,0.0,0
mp-752439,BaSr2I6,3.8301,0
mp-721238,Li10Sn(PO6)2,3.2725999999999997,0
mp-21900,Ce(SiIr)2,0.0,0
mp-763365,Mn3O5F,0.0,0
mp-777489,LiFeF3,3.0799,0
mp-865651,Y2TlCd,0.0,0
mp-753153,Dy2CO5,4.4368,0
mp-600027,SiO2,5.522600000000001,0
mp-571469,Sm3Mg13Zn30,0.0,0
mp-567743,AlSb2(TeCl2)2,0.7508999999999997,0
mp-35171,NbO2F,1.3247,0
mp-643658,Na3MgP2HO8,4.863899999999999,0
mp-558536,RbCdAuS2,1.9324,0
mp-643006,Cs3H5Pd,2.2702999999999998,0
mp-753164,YbTiO3,3.5820000000000003,0
mp-756670,Eu2Pb2O7,0.0,0
mp-531201,Ho2CdSe4,0.7393000000000001,0
mp-759,La2Sb,0.0,0
mp-27718,CsHgBr3,0.0,0
mp-555414,Ba3Sb4O,0.3586999999999998,0
mp-570231,CsCdBr3,0.6968000000000001,0
mp-764900,VOF,1.3589000000000002,0
mp-999300,PdN,0.0,0
mp-11311,TmCd2,0.0,0
mp-18199,Sr3TaAs3O,1.3209999999999997,0
mp-11831,YbZnSn,0.0,0
mp-772630,Li3V(BO3)2,2.8342,0
mp-636056,KN3,0.0,0
mp-1019102,SmMnSi,0.0,0
mp-1046764,Mg2Nb2WO8,0.3799999999999999,0
mp-631502,CrNi2Hg,0.0,0
mp-624769,P2WO8,2.5303999999999998,0
mp-720212,Rb9Na2Al11Si13O48,2.4145,0
mp-849331,Ti2N2O,1.0337999999999994,0
mp-9801,HfCoAs,0.0,0
mp-28065,ThNCl,2.4974000000000007,0
mp-762311,ZnH12N4Cl4O3,3.2221,0
mp-764048,Li4Fe2Ni3Sb3O16,0.6627000000000005,0
mp-568653,FeSe2NCl6,1.3134000000000001,0
mp-850962,LiFe2(SiO4)2,0.005599999999999938,0
mp-640024,HfInNi2,0.0,0
mp-685128,Fe7S8,0.0,0
mp-1047075,MoO2,1.2937000000000003,0
mp-629458,BC2N,1.661900000000001,0
mp-677516,Rb5NO5,0.0,0
mp-15472,Ba4LiCu(CO5)2,0.9264999999999999,0
mp-556799,Li3In(BO3)2,3.4307999999999996,0
mp-2798,SiP,1.7395,0
mp-23546,Na2UI6,0.0,0
mp-756013,PrSiO4,0.0,0
mp-774324,Li6MnFe5(BO3)6,2.8479,0
mp-557539,MoF3,3.5743,0
mp-1885,AlIr,0.0,0
mp-975887,PrNd3,0.0,0
mp-704879,Ni5Te4(BrO6)2,2.7859999999999996,0
mp-27839,K2TiCl6,2.0826000000000002,0
mp-1021668,In3Sb,0.0,0
mp-675606,Li5AuO4,2.1316,0
mp-7751,PuPt5,0.0,0
mp-36223,Ba(PrS2)2,1.9354,0
mp-767550,Na2TiPCO7,0.1887000000000003,0
mp-510278,GdTiO3,0.0,0
mp-20586,VCo2Si,0.0,0
mp-1008727,Ti2Ge,0.0,0
mp-14207,Ba(ZnSb)2,0.0,0
mp-562667,Ag3N5O6,2.1573,0
mp-1041092,HoMg(FeO3)2,0.0,0
mp-971706,ZnBiO3,0.0,0
mp-1009230,NdAs,0.0,0
mp-560189,NaLi2BO3,3.9589,0
mp-773910,Er2GeO5,3.6141,0
mp-1022809,Ba4NbFeO8,2.6971,0
mp-9025,YSiAu,0.0,0
mp-669917,ZrRh,0.0,0
mp-504598,Rb2PbO2,1.8864000000000003,0
mp-5380,Ca4P2O,1.2714000000000003,0
mp-1030409,Te2Mo3W(Se2S)2,0.0,0
mp-777918,Cr3Sb5O16,0.5430000000000001,0
mp-683991,Cu4Bi4S9,0.31599999999999984,0
mp-756553,Li5Cu3(SbO5)2,0.021600000000000286,0
mp-558970,H16C3NF7,7.3689,0
mp-974330,SBr3,0.0,0
mp-774537,Ti2(PO4)3,0.0,0
mp-1043568,TaPO5,3.2243,0
mp-17984,Ag8SnSe6,0.0009999999999998899,0
mp-738629,CsGaH24(SO10)2,5.2373,0
mp-1018030,Sr2SO,2.1896000000000004,0
mp-859877,LaMgI5,2.6791,0
mp-561246,Al2Si2Pb2O9,2.7575000000000003,0
mp-19927,CeZnGe,0.0,0
mp-998176,RbPbBr3,1.7624,0
mp-560624,Na5Bi(P2O7)2,4.2843,0
mp-973785,PbN,0.0,0
mp-12684,LaAl,0.0,0
mp-865716,YbCl2,5.3972,0
mp-1048370,Ba2AlW3O7,0.0,0
mp-696308,B3H7CO,4.0448,0
mp-977539,LiNd2Ru,0.0,0
mp-642654,SrH2O3,0.0,0
mp-11609,Sb(MoS)2,0.0,0
mp-7692,Al(CrB)2,0.0,0
mp-767151,Li2CuNi(PO4)2,0.0,0
mp-558585,Hg3PClO4,2.3788,0
mp-568931,YbNiSb,0.0,0
mp-722535,K2UP2(H2O5)2,0.006900000000000003,0
mp-29513,CsXeF7,3.2665999999999995,0
mp-557290,Na2Si2O5,3.8875999999999995,0
mp-31135,Si19Te8,0.8865999999999996,0
mp-3660,LiB3O5,6.3532,0
mp-25417,LiTiO2,0.0,0
mp-20326,U(PS3)2,0.0,0
mp-973528,K3Si,0.0,0
mp-421,DyNi2,0.0,0
mp-21239,FePb2(CN)6,3.4058,0
mp-972907,Sc2AlAg,0.0,0
mp-559835,BaTaF7,5.691,0
mp-691076,Ba2Al4Si6H14O27,0.6104,0
mp-1018165,PtC,0.0,0
mp-973601,HgI3,0.0,0
mp-11019,GaCuO2,0.7812999999999999,0
mp-998711,TlGeF3,3.3593,0
mp-31690,Cr(PO3)3,1.949,0
mp-10680,BaSe,1.2143000000000002,0
mp-557730,Dy(PO3)3,5.5908,0
mp-20215,LaS,0.0,0
mp-1014264,CrN2,0.0,0
mp-568863,LiEu2CBr3N2,0.7450999999999999,0
mp-541073,SmSI,2.4395000000000002,0
mp-645568,TlCr(MoO4)2,2.7802,0
mp-13573,Sc5Si7Pt9,0.0,0
mp-1046654,Sr2CrSO3,0.0,0
mp-28235,Tl(CuO)2,0.0,0
mp-559296,AsS4N4F5,1.7121,0
mp-15144,ZnAg2GeO4,0.26269999999999993,0
mp-601846,Yb2In8Ir,0.0,0
mp-1041482,ZnSi2SnO6,3.0589000000000004,0
mp-626534,H3NO,3.8407,0
mp-766447,Li2Cu4S3,0.7526000000000002,0
mp-16624,ErAl7Au3,0.0,0
mp-1042214,BaYCuBiO5,0.0,0
mp-776055,Fe3Cu2Sb(PO4)6,0.0,0
mp-985701,AgAs3H2O9,0.8247,0
mp-782821,LiV2(OF)3,0.8960000000000001,0
mp-581738,Cs3BiSe3,2.0207,0
mp-30734,Ho5Rh3,0.0,0
mp-555095,Ba5Re3NO18,2.3,0
mp-571513,Rb2NbCl6,0.0,0
mp-29014,P2S3,2.4837000000000002,0
mp-352,HfO2,4.0165,0
mp-558073,Sb2SeI2F11,1.4002,0
mp-622116,ReOF4,0.9318,0
mp-755689,ErClO,5.249599999999999,0
mp-600125,HfInCu2,0.0,0
mp-781788,K2LiNb6(PO8)3,2.2356000000000003,0
mp-781615,HfCrO4,0.5763000000000003,0
mp-768221,YBiO3,3.0834000000000006,0
mp-733840,GaH12N3(OF2)3,5.216200000000001,0
mp-1044441,PrMg(CuO3)2,0.0,0
mp-504838,CsPS3,1.9062000000000001,0
mp-779083,Li2V3SnO8,0.0,0
mp-27469,Th2BiN2,0.0,0
mp-1029145,Te4MoW3(SeS)2,0.0,0
mp-4782,CaSnF6,5.4068000000000005,0
mp-1019728,RbEu(PO3)4,0.0,0
mp-1026976,TeMoWSe2S,0.0,0
mp-772910,Bi3IO4,2.3630999999999998,0
mp-972364,Yb,0.0,0
mp-15669,Ti3Te4,0.0,0
mp-762049,LiCu2PO4,0.5485999999999995,0
mp-676129,NaSm2Cl6,0.0,0
mp-556858,Al2P3H9(CO3)3,4.7339,0
mp-21851,MnSiIr,0.0,0
mp-15362,Li3Nd2(BO3)3,4.7523,0
mp-1028679,Te2W2SeS,0.0,0
mp-561086,CaSiO3,4.707999999999999,0
mp-1047617,Co(WO4)2,0.1016999999999999,0
mp-973614,K3Sn,0.0,0
mp-1017109,CsMg6Nb,0.0,0
mp-9741,Na3Cd2IrO6,0.0,0
mp-29443,PI2,1.9266999999999999,0
mp-973853,Pa3Tc,0.0,0
mp-30091,MgB9N,1.6752999999999991,0
mp-1045937,Mg2Co9O13,0.0,0
mp-36538,La2PbS4,2.1548999999999996,0
mp-707009,BH2OF3,7.5534,0
mp-1047680,ZnCr2O4,1.6380000000000003,0
mp-1029140,Te2MoW3(SeS2)2,0.0,0
mp-641965,RbAuC2(SN)2,2.4942,0
mp-10225,NaVS2,0.0,0
mp-758836,Li4Ti3O8,1.7452999999999999,0
mp-26675,LiSb(PO3)4,4.2484,0
mp-579552,La2CO5,3.932999999999999,0
mp-570229,ThBr4,2.8181,0
mp-1757,DyFe2,0.0,0
mp-557441,KAu(IO3)4,2.1081000000000003,0
mp-4445,Hg3AsO4,0.49249999999999994,0
mp-1008835,OsC2,0.0,0
mp-999292,Pd3N,0.0,0
mp-769015,DyGaO3,2.8659,0
mp-20695,Zr3In,0.0,0
mp-38487,Li7BiO6,1.8635,0
mp-1027058,Te2MoWS2,0.0,0
mp-1041690,Ca(SbO2)2,2.5223999999999998,0
mp-1041027,SnP2O7,1.8744,0
mp-864954,MgMoN2,0.7411000000000012,0
mp-3657,TiCo2Si,0.0,0
mp-557319,InH8C4NO10,3.5606,0
mp-7396,Li3Tl,0.0,0
mp-703326,InRe4H8NO20,0.0,0
mp-557865,NO2,2.781,0
mp-574424,SeN,1.9512999999999998,0
mp-18257,Fe7C3,0.0,0
mp-686041,Li7Nb8O24,0.0,0
mp-769262,K5YO4,2.2965999999999998,0
mp-569350,La5Sn3Br,0.0,0
mp-11444,YGa2Ni,0.0,0
mp-29550,Ba2EuCl7,0.0,0
mp-29131,VSe,0.0,0
mp-864978,Mg2AgAu,0.0,0
mp-556198,Na2Si3O7,4.3033,0
mp-22622,YbCoB4,0.0,0
mp-676975,Ba3Na7Ti3Nb7O30,1.1087000000000002,0
mp-780636,Mn3O5F,0.0,0
mp-675677,Yb(SmS2)2,2.0578,0
mp-643071,Yb4Mg4Fe3H22,1.4719,0
mp-16526,AlPt2,0.0,0
mp-1045361,Ta2ZnO6,3.0212,0
mp-1076,KB6,0.0,0
mp-979956,Yb3Mg,0.0,0
mp-7930,Zr3(Cu2Si)2,0.0,0
mp-7435,KCuSe,0.17819999999999991,0
mp-3219,EuPO4,0.0,0
mp-9368,RbTmS2,2.3680000000000003,0
mp-677613,Ba3Si3N5ClO,1.835,0
mp-780872,LiMnSiO4,0.9821,0
mp-542170,Lu5(Si5Ir2)2,0.0,0
mp-29763,RbMnBr3,1.182,0
mp-866522,Ca2SnS4,1.0520999999999998,0
mp-2290,NdRh2,0.0,0
mp-765472,KTi6O12,0.0,0
mp-631489,Be2CdP,0.0,0
mp-975647,Pr3Ag,0.0,0
mp-20370,UCuPO,0.0,0
mp-647725,Os5C17O16,2.0169,0
mp-558879,OsOF4,0.5956999999999999,0
mp-29596,Ca3AlN3,2.4572999999999996,0
mp-20878,PbO,2.1565,0
mp-11171,LiRhF6,0.0,0
mp-762292,Li4V5O10,1.2627000000000002,0
mp-8190,Tl2SiS3,2.3594,0
mp-17667,Sr3AlSb3,0.5371000000000006,0
mp-541152,Al2Si2H4O9,4.9053,0
mp-10783,RbHoSe2,1.9620000000000002,0
mp-17926,Zr3Ni3Sb4,0.4371999999999989,0
mp-6509,Sr3GaO4F,3.6831,0
mp-22993,AgClO4,2.6059,0
mp-1030465,MoW3(Se3S)2,0.9203000000000001,0
mp-734733,Ca19(Mg4H27)2,2.7886,0
mp-706559,H3CSN2,3.111,0
mp-705530,P3H4N5Cl4,3.6244,0
mp-553991,Ti(GaO2)4,2.3608000000000002,0
mp-173,MnAl6,0.0,0
mp-626210,Sr(H8O5)2,3.4569,0
mp-11652,Yb3PbO,0.0,0
mp-10728,PdO,0.0,0
mp-30137,Gd3ReO8,1.6219999999999999,0
mp-23980,Cs3H(SeO4)2,3.7309,0
mp-770839,LiCr(CO3)2,3.0397,0
mp-2324,PrCd2,0.0,0
mp-8962,Rb2HgF4,1.9382000000000001,0
mp-15239,Nd3Ga5O12,3.0611,0
mp-616572,Li2P2PdO7,1.2047999999999999,0
mp-862731,Pm3Ge,0.0,0
mp-559732,K2Nd(PO3)5,5.2482999999999995,0
mp-42175,Ca2AlH10ClO8,4.3268,0
mp-680728,K6Fe24S26Cl,0.0,0
mp-1044049,CaBi3O7,0.0,0
mp-1043875,Ni2O3,0.0,0
mp-510085,Er2Ti3Si4,0.0,0
mp-1018686,ErH2,0.0,0
mp-6514,NaLaTiO4,2.4214999999999995,0
mp-623134,ZrInCu2,0.0,0
mp-18219,Dy2SiSeO4,2.5740999999999996,0
mp-774868,ZnP4O11,4.627,0
mp-561027,AlPO4,5.5314,0
mp-505362,Ca(LuS2)2,1.5810999999999997,0
mp-554837,Ba3LiIr2O9,0.0,0
mp-781712,Na2SnO2,2.4072,0
mp-22893,PbI2,2.3702,0
mp-1044868,MgSnP2O7,3.7419,0
mp-3277,BAsO4,4.2615,0
mp-7586,Ni3C,0.0,0
mp-1046128,Ba2Tl2Sb3O10,0.0,0
mp-541318,CsTi3Si2P6O25,0.0,0
mp-557111,Sr3CaRu2O9,0.0,0
mp-779092,Li24Ti11CrO36,1.4654999999999998,0
mp-20512,FeSn,0.0,0
mp-758056,LiTi(PO3)4,0.25039999999999996,0
mp-504771,LaCo8P5,0.0,0
mp-567763,Pr(C2N3)3,3.5795,0
mp-18104,Na2Si2S5,3.5318,0
mp-29631,Li11Ge6,0.0,0
mp-2600,BaTe,0.7819000000000003,0
mp-762287,Li2V5O10,0.6202000000000001,0
mp-998988,Ti3Ga,0.0,0
mp-571445,HfHg3(SeCl3)2,2.5444,0
mp-10454,SmTiGe,0.0,0
mp-560029,Y3BrO4,4.2046,0
mp-770700,Li2Ti3O7,2.8666,0
mp-555785,Nd2Ti2O7,2.7396999999999996,0
mp-865032,Mn2PtRh,0.0,0
mp-1045357,LiTi2O4,0.0,0
mp-37436,Li7SbO6,3.4465000000000003,0
mp-10867,PrPPd,0.0,0
mp-32959,H2O,5.275399999999999,0
mp-770673,V5Sb(PO4)6,0.0,0
mp-770354,Li3V3(BO5)2,0.7279,0
mp-22856,Bi2S3,1.3617999999999997,0
mp-649091,MoPNCl6O,2.1536,0
mp-675724,BiTeO4,2.1729000000000003,0
mp-554626,Ba(BrO3)2,4.1943,0
mp-7951,ThSe2,0.6304999999999996,0
mp-779289,Na6Bi2B4SO16,0.18359999999999999,0
mp-5677,Tb(MnSi)2,0.0,0
mp-7700,SiB6,0.05679999999999996,0
mp-35647,Zn2PtO4,0.6309,0
mp-571011,CsI4,1.7836,0
mp-767636,LiMn2O3F,0.4117000000000002,0
mp-780116,Mn6O5F7,0.0,0
mp-18500,K3Sn4Au,0.4004000000000003,0
mp-707879,K2Cu5H8(Cl4O3)2,0.20890000000000009,0
mp-14069,CsAlO2,4.273499999999999,0
mp-999117,TcN,0.0,0
mp-778604,Li3BiO3,2.8422,0
mp-1020739,PSN9,3.2106,0
mp-1046584,Ba2Tl2W3O10,0.0,0
mp-15408,KGaF4,5.2165,0
mp-781683,LiFeP2HO7,3.9745,0
mp-1020147,Na2Mg2P3NO9,5.0785,0
mp-1042619,MgCu3(SnO3)4,0.47799999999999976,0
mp-673105,Cu3(P2O7)2,0.0,0
mp-754942,SrSm2O4,3.5881,0
mp-42020,BaYMnCoO5,0.20539999999999958,0
mp-571468,Ho3CuSiSe7,1.5893000000000002,0
mp-15939,SrAl2B2O7,4.6511000000000005,0
mp-14190,NdPO4,5.3095,0
mp-1007852,FeCo3,0.0,0
mp-7083,LaSi,0.0,0
mp-604008,CeAlRu,0.0,0
mp-608551,Ti(AlBr4)2,0.34120000000000006,0
mp-756063,RbNbO3,2.8197,0
mp-6566,NaZnAsO4,2.7862,0
mp-541837,Bi2Se3,0.5434000000000001,0
mp-771238,Y2TeO6,2.2226999999999997,0
mp-756342,AgBrO4,0.8743000000000001,0
mp-569265,Mg3Pt,0.0,0
mp-778506,Li2VF5,2.8520000000000003,0
mp-1020706,SrY2Si3O10,4.9315999999999995,0
mp-765552,Li2MnCoO4,0.49360000000000026,0
mp-23255,UBr3,0.0,0
mp-542298,Ag2F5,0.0,0
mp-960,B2Mo,0.0,0
mp-2127,Pr3Te4,0.0,0
mp-4995,LiSbO3,2.1379000000000006,0
mp-631335,MgTaZn,0.0,0
mp-28380,Rb3TlO3,1.4607999999999999,0
mp-764715,V2OF5,1.5907,0
mp-560929,Na3CrF6,4.0586,0
mp-780854,Fe4O7F,0.0,0
mp-753192,Yb4Sb2O,0.6339999999999999,0
mp-555563,PH6C2S2N(ClO2)2,3.8232999999999997,0
mp-622295,NaMo(PO4)2,2.4920999999999998,0
mp-15683,CrAsRh,0.0,0
mp-631302,ScVFe,0.0,0
mp-1042809,MgFeAs2O7,1.7610999999999999,0
mp-504908,In2TeO6,1.0047000000000006,0
mp-1045504,Al(NiO2)2,0.14280000000000026,0
mp-3188,Zn(SbO3)2,0.5421999999999993,0
mp-14715,Pr2Au5F21,1.7724,0
mp-4320,CuTeO3,0.0,0
mp-695843,SbH7(Br2O)3,0.8734,0
mp-22772,Sr2Nb5O9,0.0,0
mp-29767,Pt5Se4,0.0,0
mp-9918,LiGe,0.0,0
mp-569059,HfI4,2.3528000000000002,0
mp-15910,Re2SbO6,0.0,0
mp-545598,UCdO4,1.9427999999999996,0
mp-759711,LiCuCO3,1.3639999999999999,0
mp-1019889,KSi2BO6,5.3233999999999995,0
mp-35249,Sm2Hf2O7,3.7211000000000003,0
mp-1041225,HoCr2O6,0.11019999999999985,0
mp-684002,LaYbS3,0.0,0
mp-622122,U2(P2O7)3,0.2629999999999999,0
mp-571579,CdI2,2.4388,0
mp-977546,Pm2ZnGa,0.0,0
mp-775162,V3Co3(TeO8)2,0.0,0
mp-1027530,Te2Mo3W(SeS2)2,0.0,0
mp-768866,Sm2Cu2O5,0.35530000000000017,0
mp-1302,PrO2,0.0,0
mp-763785,LiMn2OF3,1.8294,0
mp-631375,ReSn2Se,0.0,0
mp-865485,V2CrOs,0.0,0
mp-16402,Tb4(SiS4)3,2.3655999999999997,0
mp-1016092,Re2O7,2.6752000000000002,0
mp-540639,FeH8C4(S2N3)2,0.5768,0
mp-769570,Na3Fe2P(CO4)4,0.04710000000000003,0
mp-863027,LiIn3,0.0,0
mp-11241,DyAu2,0.0,0
mp-22755,TbGeIr,0.0,0
mp-19157,LaMnO3,0.0,0
mp-561301,SiO2,1.9962,0
mp-631528,ZnBSe2,0.0,0
mp-866691,La2PC,0.0,0
mp-781603,Li4Mn3Fe(BO3)4,3.0329000000000006,0
mp-1046873,Mg(SbO2)2,1.0955000000000004,0
mp-2896,Pr(GeRh)2,0.0,0
mp-1020630,Rb2Na(NO3)3,2.9985999999999997,0
mp-12730,Ba2YbRuO6,0.0,0
mp-555439,CsLi3F4,6.7384,0
mp-20166,Np(SiAu)2,0.0,0
mp-2017,LuAs,0.0,0
mp-721013,ZnGaP2H4NO8,3.5802,0
mp-1047495,Ca3Mn3(AsO4)4,2.0392,0
mp-758651,Li3Sb3(PO4)4,3.6363000000000003,0
mp-7098,Np,0.0,0
mp-849327,Li2Cu(PO3)3,1.1791999999999998,0
mp-1042111,CrS2,0.0,0
mp-12485,NaSm3SiS7,2.0169,0
mp-10746,Mg2Cu3Si,0.0,0
mp-989523,Rb2NaAsF6,4.5471,0
mp-1029862,Na15Mo7N19,1.3481,0
mp-1674,PrSe,0.0,0
mp-8591,USe2,0.0,0
mp-644303,UW3O11,0.0,0
mp-27488,Ta3N5,1.2140999999999997,0
mp-753541,LiCuF4,1.0145,0
mp-422,BeS,3.1453,0
mp-11433,ErGaCo,0.0,0
mp-640614,In2Si(AgSe3)2,0.4724999999999997,0
mp-558569,SiO2,5.6388,0
mp-691106,MnSnO3,0.2273000000000005,0
mp-27383,Nb3CuO8,0.7487999999999997,0
mp-20123,Te2Au,0.0,0
mp-775135,Cr3Ni(PO4)4,0.00990000000000002,0
mp-7176,RbLaSe2,2.32,0
mp-1043251,ZnW2O5,0.49849999999999994,0
mp-696231,H4CN5Cl,3.3781,0
mp-542201,Ba3Nb2O8,4.499700000000001,0
mp-763541,KMn2O4,0.3195999999999999,0
mp-21203,TbCoSi,0.0,0
mp-768241,Dy2Ge2O7,3.8473,0
mp-12098,K(PRh)2,0.0,0
mp-684024,Li2SiN2,3.8508,0
mp-560605,LiLa4AuO8,1.6583000000000006,0
mp-3699,CoAsS,0.0,0
mp-10581,Nd(AlGe)2,0.0,0
mp-11824,Ca3PN,0.8045999999999998,0
mp-29186,La(SiP3)2,0.8978000000000002,0
mp-1045335,Y(VS2)2,0.0,0
mp-31463,Tb5Bi3,0.0,0
mp-757156,Sn(PO3)4,2.8192999999999997,0
mp-45,Ca,0.0,0
mp-754236,Y2GeO5,3.7067,0
mp-1002069,NaLiICl,4.1874,0
mp-9008,RbTeAu,1.1078999999999999,0
mp-18677,PrSc3(BO3)4,4.389200000000001,0
mp-29809,Ca2GeN2,0.0,0
mp-766923,LiVSiO4,1.8510999999999997,0
mp-1048316,Ba2YCo3O7,0.0,0
mp-985782,H2C,6.475,0
mp-3197,TbAlPd,0.0,0
mp-861651,Li2PdPb,0.0,0
mp-14476,LiRhO2,1.3800000000000003,0
mp-676854,Ta14(CuS8)3,0.0,0
mp-28706,Sr5(B5Rh7)2,0.0,0
mp-7917,HfGeSe,0.0,0
mp-27126,Na2Mn3Cl8,1.9223,0
mp-557092,Y3Si2Cl5O6,4.5564,0
mp-772432,FeH4(SO5)2,0.07240000000000002,0
mp-695596,Ba4Pr7Si12BN27,0.0,0
mp-540957,Cs2TeI6,1.3877,0
mp-754897,BaTl2O4,0.2972999999999999,0
mp-707238,KPH2O3,3.9123,0
mp-542003,Yb2Ni12P7,0.0,0
mp-667200,NaCa2TiSi2O8F,3.7375,0
mp-10597,Ag,0.0,0
mp-697018,SrZnP2(HO4)2,0.3123,0
mp-559208,SrTiSi2O7,3.6068,0
mp-10872,HfAlAu2,0.0,0
mp-863764,TeBr2,0.6528999999999999,0
mp-779756,Na5Co2As(CO4)4,0.0,0
mp-760403,CaCd3O4,0.19190000000000018,0
mp-555212,Ba2InBrO3,1.8283000000000005,0
mp-706979,PH6N3O,4.6727,0
mp-766625,LiFe2(BO3)2,0.6017999999999999,0
mp-7988,Cs2O,0.5856999999999999,0
mp-7801,CaGeN2,2.6618000000000004,0
mp-16033,Sm2TeO2,1.4223999999999997,0
mp-753357,SrBi5O9,0.0,0
mp-601952,K2FeCu(CN)6,0.0,0
mp-504340,LiSb(PO3)4,4.1842999999999995,0
mp-24277,KGdP2H4O9,3.2754000000000003,0
mp-1042458,YTa(WO4)2,1.9435000000000002,0
mp-31024,Sc5CCl8,0.0,0
mp-672287,Li13Si4,0.0,0
mp-625208,H8PtO6,1.9379999999999997,0
mp-999308,OsC,0.0,0
mp-1048881,CaLaCrBiO6,0.0,0
mp-768281,Ho2Ge2O7,3.3100000000000005,0
mp-30799,NdTlPd,0.0,0
mp-27868,VNCl4,1.2547000000000001,0
mp-761748,Li2CrCo3O8,0.0,0
mp-977376,TbCdAu2,0.0,0
mp-779515,Na4Bi2C4SO16,2.0267,0
mp-505034,Cs2MnS2,1.1562000000000001,0
mp-767946,Mn2V3Sb(PO4)6,0.0,0
mp-568654,PrAg2,0.0,0
mp-557738,Li3BiO4,1.0578999999999996,0
mp-555620,BaNb7(P2O11)3,0.0,0
mp-15103,Sr3Y2(GeO4)3,3.1359,0
mp-510549,K3B12H12Br,4.7863,0
mp-30069,CuNi2Sb,0.0,0
mp-3387,CaSiO3,3.6537999999999995,0
mp-763440,Li8Mn(O2F)2,2.6852,0
mp-22718,TbInAu,0.0,0
mp-864610,Nd2MgAl,0.0,0
mp-542448,Cs3GaSe3,2.0806,0
mp-758814,CaAs2H6F18,4.9837,0
mp-4219,CeGeAu,0.0,0
mp-3982,KCuO2,0.8604999999999999,0
mp-555485,Rb2GdGa(SiO3)4,3.3463,0
mp-12784,YbAlAu,0.0,0
mp-28660,Ca2Cu6P5,0.0,0
mp-27852,Hg3(TeCl)2,1.9124999999999999,0
mp-8958,RbPd2F5,0.2456,0
mp-582108,Sr21(Cd2Bi9)2,0.17779999999999996,0
mp-1018940,PrSe2,0.0,0
mp-979966,Yb2Cr2C3,0.0,0
mp-684525,Cu2Se,0.0,0
mp-973965,Nd3Ag,0.0,0
mp-541908,KSbF6,4.9633,0
mp-771986,Li4Fe3O8,0.1331,0
mp-560399,NaMgF3,5.926200000000001,0
mp-560193,SnSe2(Cl4O)2,2.7633,0
mp-567718,KTiBr3,0.0,0
mp-557,TeO2,2.7971000000000004,0
mp-555700,SiO2,5.484,0
mp-23169,Pr2Br5,0.2824,0
mp-14406,Ba2Re6S11,1.3384999999999998,0
mp-559779,Nd3SiS6Cl,2.5568000000000004,0
mp-6822,NaGa(SiO3)2,4.1707,0
mp-5778,AlVFe2,0.0,0
mp-3890,Sm2Cr2Fe15,0.0,0
mp-30133,Ba(CuTe)2,0.6006999999999998,0
mp-772876,BaSr2I6,3.9536,0
mp-6413,LiDy(PO3)4,5.9314,0
mp-23086,ErSeClO3,4.3487,0
mp-568394,MoCl3,0.5488999999999997,0
mp-3055,NdB2Rh3,0.0,0
mp-561336,Li2Mg2Si4O11,4.9276,0
mp-772890,Np(SeO3)2,0.02210000000000001,0
mp-1043825,CaLaTiFeO6,1.9794,0
mp-1046669,MgCrSiO5,0.5706000000000002,0
mp-10349,Na2SnTeO6,1.2355999999999998,0
mp-555612,Sb4IrC5ClO5F22,2.9356999999999998,0
mp-762575,Li2(FeO2)3,0.0,0
mp-7959,KErO2,3.9606,0
mp-13292,TbYb2PrS6,1.2724000000000002,0
mp-862795,CaLaAg2,0.0,0
mp-21910,Nd3AlN,0.0,0
mp-1018740,LaCoSi,0.0,0
mp-30174,Ca4Al51Cr7,0.0,0
mp-695367,La13Al12Si18(N13O5)3,0.9276,0
mp-771658,Li2NiH12(SO7)2,4.8361,0
mp-676799,Ag8GeTe6,0.07189999999999985,0
mp-20841,Ba2CaIrO6,0.0,0
mp-5974,La2Si2O7,4.651299999999999,0
mp-782053,Sr9La5Cl33,3.6325000000000003,0
mp-1020142,Na2B4O7,5.4224,0
mp-1043944,LaFeMoO6,1.3935000000000004,0
mp-570951,Ti(AlCl4)2,0.055199999999999694,0
mp-744404,K2FeH4(SO5)2,0.0,0
mp-1029,BaF2,6.5953,0
mp-690560,TiTlWO5F,2.8041,0
mp-556477,Lu2O3,4.2763,0
mp-764842,LiVOF3,2.1513,0
mp-755431,PrNdO2,0.0,0
mp-1041962,Zn(NiO2)2,0.0,0
mp-10789,Yb2Ge6Pd,0.0,0
mp-10614,SrLiP,0.7964000000000002,0
mp-1048379,Ba2YV3O7,0.0,0
mp-777451,Li2FeF4,3.6065,0
mp-766268,Bi12O16F5,0.0,0
mp-981512,YbLuPt2,0.0,0
mp-1027348,TeMoWSe2S,0.10840000000000005,0
mp-568196,Er3CoSi3,0.0,0
mp-627640,Eu(ClO4)3,0.0,0
mp-601275,K3AlH6,2.1919,0
mp-2184,As2O3,4.009,0
mp-754444,Zn(AgO2)2,0.2388,0
mp-23809,RbScBP2HO9,4.8011,0
mp-974611,RePb3,0.0,0
mp-680087,ZnS,2.021,0
mp-849086,CuS2,0.0,0
mp-30339,ErAg2,0.0,0
mp-1046194,Ba2Tl2Zn2Sn3O10,0.0,0
mp-1042153,BaYCuAgO5,0.0,0
mp-12187,Na2Mg2(Si2O5)3,4.410299999999999,0
mp-676684,Sr4Nb2O9,3.25,0
mp-6647,BaYAgSe3,1.3282000000000003,0
mp-30855,UPt3,0.0,0
mp-676300,Sc3NbO7,2.0595999999999997,0
mp-3803,Ta4AlC3,0.0,0
mp-752651,Li4Ti2Nb3Cu3O16,0.0,0
mp-775796,Li2Ti3NbO8,0.0,0
mp-8393,Tl3SbS3,1.592,0
mp-26,La,0.0,0
mp-776404,ZrO2,3.4628999999999994,0