mp_id,formula,band_gap,fidelity
mp-569790,BaAg2GeSe4,0.026599999999999735,0
mp-1014261,IrO2,0.0,0
mp-865247,GaFeIr2,0.0,0
mp-31022,Hf2Si4Ru3,0.0,0
mp-24029,Na2H10SO5,3.3539,0
mp-861956,LiPm2Ir,0.0,0
mp-569509,Er2Co7,0.0,0
mp-17250,K3SbO3,3.2348,0
mp-776509,Sr2Ti6N2O11,1.9036,0
mp-557870,LaF3,4.9708,0
mp-754757,SbRhO4,0.0,0
mp-560937,Na3Si3SnO9F,3.8343,0
mp-29212,Tl4PbI6,2.3270000000000004,0
mp-4909,V2NiS4,0.0,0
mp-760205,Ba16S16O59,4.9752,0
mp-4212,Nb3Co4B7,0.0,0
mp-1028825,Te4MoW3(SeS)2,0.0411999999999999,0
mp-673247,Y2O3,0.0,0
mp-30644,Hf3Nb2Ga3,0.0,0
mp-12020,ErAl4Ge2Au,0.0,0
mp-14242,Tl2GeSe3,1.1404999999999998,0
mp-772997,Li8Ti7Nb6O30,0.0,0
mp-18449,K2ZrO3,3.6641,0
mp-17332,Sc5Ga3,0.0,0
mp-558736,H3CSN(ClO)2,2.6254,0
mp-29413,Rb3Nb2Br9,0.0,0
mp-12773,Zr2Al,0.0,0
mp-5671,Sr(CoP)2,0.0,0
mp-734123,RbSrP3(HO2)6,5.3296,0
mp-29045,La5Ti5O17,0.0,0
mp-23341,Bi2Pt2O7,0.7881,0
mp-581716,Sr(InAu)3,0.0,0
mp-29720,Li21Si5,0.0,0
mp-568082,La3CuSiSe7,1.5846,0
mp-567322,KSm2Sb3Se8,0.5093999999999999,0
mp-29372,Cs2GaSb2,1.0828000000000002,0
mp-763253,LiCoSiO4,1.4737999999999998,0
mp-1027,HfRh3,0.0,0
mp-9362,RbPrS2,2.2686,0
mp-9639,BaCu(SeO3)2,0.3527,0
mp-18293,SiP2O7,5.4559999999999995,0
mp-1707,BaN6,3.8159,0
mp-761687,LiSbPO5,0.0,0
mp-112,Y,0.0,0
mp-560578,RbTeNO3F4,3.3838,0
mp-37741,Ba(LaSe2)2,1.7602000000000002,0
mp-761164,LiNbF5,0.0633999999999999,0
mp-675406,Yb(HoS2)2,2.1723,0
mp-867846,TaTiRe2,0.0,0
mp-1047759,Ca2Nb2FeO8,2.5871,0
mp-997001,AgHgO2,0.0,0
mp-36447,Al2CoO4,3.0024000000000006,0
mp-770663,Li2FeBO4,2.3322000000000003,0
mp-558941,LiYSiO4,5.1083,0
mp-675009,Y4CuTe8,0.0,0
mp-6783,NaLiSO4,5.5381,0
mp-548,NbCr2,0.0,0
mp-8945,YSnF7,4.7535,0
mp-669320,Ba5Si3,0.0,0
mp-615789,Ba2(CuO2)3,0.0,0
mp-673657,Ti7S12,0.0,0
mp-763546,Mn(SbO3)2,0.0,0
mp-9389,HoCuGe,0.0,0
mp-1237,UGe2,0.0,0
mp-16764,RbYTe2,1.3602000000000003,0
mp-762336,LiSb(PO3)4,3.9234,0
mp-541996,Pr2SiTeO4,1.7631000000000006,0
mp-17060,NaAlSe2,2.2333,0
mp-10778,RbPrSe2,1.9029,0
mp-20369,CeIn3,0.0,0
mp-628633,Se2SN2Cl,1.4569,0
mp-643776,Na2ZnH4(SeO5)2,3.0254,0
mp-672188,Y5Pb4,0.0,0
mp-38856,Mn2FeO4,0.0,0
mp-768320,LiLa5Ti8O24,1.9374000000000002,0
mp-554346,KSr4(BO3)3,4.173,0
mp-3859,Ca2B2O5,4.7391,0
mp-779498,Ba3(ClO)2,2.4989,0
mp-753854,Rb2PH3SeO8,4.077500000000001,0
mp-11670,BaYSi4N7,2.7326999999999995,0
mp-619,UB4,0.0,0
mp-777781,Li2FeF4,3.3033,0
mp-999496,Na3N,0.0,0
mp-998552,BaHfO3,3.5309,0
mp-11022,ScAgO2,2.1151,0
mp-979968,Yb2CdHg,0.0,0
mp-542739,Co21(SnB3)2,0.0,0
mp-554749,P3IrO9,2.2494000000000005,0
mp-973891,LaV,0.0,0
mp-556627,K4GeS4,2.7133,0
mp-29938,Ba(GaSb)2,0.027800000000000047,0
mp-722684,KAlP4(H2O7)2,5.653,0
mp-1018643,YBPd3,0.0,0
mp-555915,S,2.5404,0
mp-28773,Na4Ga2S5,2.4813,0
mp-11473,TlHg,0.0,0
mp-7550,CeNbO4,0.0,0
mp-972912,La3Er,0.0,0
mp-1018952,PrZnIn,0.0,0
mp-683,Pr2C3,0.0,0
mp-1041145,MgBi3P3O13,2.8387000000000002,0
mp-1042761,Fe2(TeO4)3,1.5471000000000001,0
mp-676764,InCuSe2,0.0,0
mp-760251,Na2CuP2O7,0.5227999999999999,0
mp-1020637,Sr3BeB6O13,4.7944,0
mp-1041873,MgSi2WO6,1.1501000000000001,0
mp-541875,K3SnSe3,1.6275999999999997,0
mp-30488,CdHg2,0.0,0
mp-15743,Sr2CeO4,2.2243000000000004,0
mp-632402,LiCaUF8,0.3838999999999999,0
mp-998197,RbCaCl3,4.9587,0
mp-21911,PRu2,0.0,0
mp-21002,LaIn2Rh,0.0,0
mp-714,SrSn4,0.0,0
mp-758218,LiTiP2O7,0.1742000000000008,0
mp-1009885,ZrN,0.0,0
mp-570910,Rb2CrCl4,0.0,0
mp-30236,TlAsSe2,1.1440000000000001,0
mp-766034,Sr5(IrO3)6,0.0,0
mp-982393,Pm2ZnAg,0.0,0
mp-559,YPd3,0.0,0
mp-999068,Ti2AlV,0.0,0
mp-172,Nd5Ge4,0.0,0
mp-19094,VO2,0.8578999999999999,0
mp-777461,Li4V3Cr2Sn3O16,1.3282000000000003,0
mp-765917,LiV2OF5,1.8419999999999999,0
mp-863665,Pm2CuIr,0.0,0
mp-1043361,Mg(Ni2O3)2,0.0,0
mp-567262,NiCN2,0.0,0
mp-975882,Li3Cu,0.0,0
mp-1045401,Li(MnS2)2,0.0,0
mp-4720,Si2Ni6B,0.0,0
mp-35746,Sr(YS2)2,2.1883,0
mp-775295,Li2MnCr3O8,0.0,0
mp-11947,LiAlAg2,0.0,0
mp-558576,ReSb(OF4)2,3.7699,0
mp-11278,Ta2Be,0.0,0
mp-1003736,NaMn2O4,0.0,0
mp-17217,Tl3GeTe3,0.6694,0
mp-775287,Fe10OF19,1.4960999999999998,0
mp-10900,U2Al3Os,0.0,0
mp-774309,Li2MnV(P2O7)2,0.36339999999999995,0
mp-1046046,MgCrO2,0.7578999999999998,0
mp-989545,Rb2NaSbCl6,3.0524999999999998,0
mp-8000,SrSn(BO3)2,3.6113,0
mp-572902,Cs2CeAsS3Cl2,0.1059000000000001,0
mp-695250,BaLa7Mg5Nb3O24,3.0726000000000004,0
mp-29193,Nb2Se4O13,2.427,0
mp-772822,Li3Cu3TeO8,0.0,0
mp-558541,H9C3SeSN2Cl,3.4454,0
mp-972275,Ti2ReRu,0.0,0
mp-601924,BiH24C6(I2N)3,2.7822999999999998,0
mp-707822,H26Os2N12Cl4O9,2.4036,0
mp-11017,KCd(NO2)3,2.305,0
mp-6973,CsNaS,2.4133999999999998,0
mp-160,B,1.4314,0
mp-542816,Zr5SiSb3,0.0,0
mp-849053,NiS2,0.0,0
mp-1014379,Cr3N4,0.0,0
mp-556040,CaS2(ClO3)2,4.6536,0
mp-1871,Fe2C,0.0,0
mp-1018682,DyZnGa,0.0,0
mp-7888,Sr2HoReO6,0.0,0
mp-11007,CaPSe3,2.1236,0
mp-10004,Mo3P,0.0,0
mp-342,SmTe,0.0,0
mp-554451,BaFeF4,3.3521,0
mp-976184,Hf4Co4Si7,0.0,0
mp-5292,Ca(SiNi)2,0.0,0
mp-971707,Tm2Mg2O5,2.1944,0
mp-1090,FeSe,0.0,0
mp-20588,ZrCuSiP,0.0,0
mp-567874,Pr(AlBr4)3,3.3654,0
mp-617291,Mn5Ge3,0.0,0
mp-755877,BaNdO3,0.0,0
mp-560280,TeC6(ClF7)2,3.3301999999999996,0
mp-995238,SnH6CI3N,0.5633000000000001,0
mp-744831,MnH12C2NCl3O2,1.1092,0
mp-977,LuIn3,0.0,0
mp-776510,Li3Sb3P8O29,2.6023,0
mp-676937,Ta8Pb6O25,0.3283000000000005,0
mp-776314,Zr2N2O,1.6107,0
mp-971683,C3N4,2.1853,0
mp-1041228,CaHo(WO3)2,2.04,0
mp-770151,Li2VBO4,2.3718,0
mp-8872,RbNa2BO3,2.9274999999999998,0
mp-2680,LaB6,0.0,0
mp-23870,NaH,3.7666,0
mp-1046836,Mg2Nb2VO8,1.0759000000000007,0
mp-19796,Ba2Nb5O9,0.0,0
mp-510076,Rb7Au5O2,0.6267999999999999,0
mp-504102,Li(NiO2)2,0.008399999999999963,0
mp-754268,Li3Cu4TeO8,0.0,0
mp-568301,BiBr3,2.8692,0
mp-20821,NpGa3,0.0,0
mp-772980,Li6Te2O9,1.2989000000000002,0
mp-978809,SmAs2Au,0.0,0
mp-28157,P(HO)3,7.0934,0
mp-1018809,MoS2,1.3377,0
mp-1040943,MgV2O4,1.1481000000000003,0
mp-1006223,GdB12,0.0,0
mp-1041407,ZnSn4O9,0.38509999999999955,0
mp-12933,TmTaO4,4.1068,0
mp-555609,Sr9Zn4(CuO7)2,1.7851,0
mp-978523,Sc2ZnCu,0.0,0
mp-776599,NaTi2(PO4)3,2.6023,0
mp-1042890,MgCu(GeO3)2,0.0,0
mp-761549,LiMnPO4,3.3281000000000005,0
mp-14407,Rb7NaGe8,1.3437999999999999,0
mp-19832,BaCoS2,0.0,0
mp-981934,LaBeO3,0.0,0
mp-7194,TbCuAs2,0.0,0
mp-7181,CsSr2Ta3O10,2.0452000000000004,0
mp-850283,HfNbO4,0.0,0
mp-685618,FeAgTe2,0.0,0
mp-771141,Dy2Cu2O5,0.07209999999999983,0
mp-20487,La3Ga,0.0,0
mp-556340,CaTaNO2,1.6121999999999996,0
mp-41095,Na3Sr3AlP4,1.1233,0
mp-21526,KPb,0.37349999999999994,0
mp-1002223,DyP,0.0,0
mp-978823,SmY3,0.0,0
mp-774691,Ba6Na2P2Ru2O17,0.34529999999999994,0
mp-4475,Tl(CoSe)2,0.0,0
mp-4613,Zr2SnC,0.0,0
mp-977011,H3PbCI3NF3,1.8542999999999998,0
mp-640898,La6Mg22Al,0.0,0
mp-558128,KNd2NbO6,3.6165000000000003,0
mp-510474,Na2Cu3H8(CO2)8,0.1621,0
mp-972373,Tl,0.0,0
mp-8382,CePO4,0.1676000000000002,0
mp-30425,BaBe13,0.0,0
mp-9778,K2AgP,1.2315,0
mp-31321,La(C2N3)3,3.5544000000000002,0
mp-759734,Li3Bi2(PO4)3,3.5359000000000003,0
mp-753921,Sb11S18,0.0,0
mp-21054,PrSnPd,0.0,0
mp-752835,Li2Cu2F5,0.0,0
mp-1043162,MgNi(GeO3)2,2.4504,0
mp-557569,SmAsS,0.08270000000000088,0
mp-6802,KCu(CN)2,2.6066,0
mp-775225,Nb3Ni(PO4)6,0.0,0
mp-505814,CsBa2Nb3O10,1.4077000000000002,0
mp-862995,Er8Ga3Co,0.03950000000000031,0
mp-11536,NpRh3,0.0,0
mp-867311,AcAgTe2,0.07939999999999969,0
mp-1046437,SrCaNi(PO4)2,3.5626,0
mp-1046700,MgMnPO5,0.8868999999999998,0
mp-1046342,Ba2TlFe2O7,0.0,0
mp-557533,Cs2TlVF6,0.0,0
mp-774303,Li6Mn5Fe(BO3)6,2.6115999999999997,0
mp-982448,Pm3Y,0.0,0
mp-768027,Na2MnPCO7,0.7401000000000001,0
mp-977441,MgPaRh2,0.0,0
mp-571510,Pr5B2C5,0.0,0
mp-36699,Ce2Y2O7,1.7347000000000001,0
mp-568270,KTiCl3,0.0,0
mp-37906,LiMgN,2.2706999999999997,0
mp-1019893,La3Si6N11,2.9659000000000004,0
mp-1041868,ZnFe(SiO3)2,3.0196,0
mp-979253,Sm3Tm,0.0,0
mp-1001824,IrC,0.0,0
mp-758413,Na2CdO2,0.20799999999999996,0
mp-5419,LiGa2Ir,0.0,0
mp-677597,Ta4AgS8,0.0,0
mp-1044835,Ca(BiO2)2,1.6580999999999997,0
mp-2898,Ca(AuO2)2,1.6618000000000004,0
mp-3487,Ca3(PO4)2,5.4611,0
mp-753775,BaCaI4,2.7144999999999997,0
mp-646507,Hf2Ni2Sn,0.0,0
mp-770500,Na6Mn2B4SO16,1.4534000000000002,0
mp-3421,CuCN2,0.0,0
mp-570298,Ba(SbAu)2,0.0,0
mp-11131,K2Hg3(GeS4)2,1.5410999999999997,0
mp-603633,SnP4H8N2O13,3.7786,0
mp-567772,Na,0.0,0
mp-562338,USeO6,2.0194,0
mp-22769,TiCoGe,0.0,0
mp-983555,Er2PdAu,0.0,0
mp-642625,Hg12SbBr(ClO3)2,0.0,0
mp-18634,CdSO3,3.0385999999999997,0
mp-978280,Mg3Ga,0.0,0
mp-775274,K2CrO4,3.1309,0
mp-558703,Al3Pb5F19,5.1203,0
mp-1013738,Ca3SbAs,0.0,0
mp-675760,Sm3(Sb7Te12)2,0.0,0
mp-698416,CdH12C2(NCl2)2,3.4379,0
mp-560329,Ce2Zr2O7,0.0,0
mp-561635,CsSmSiS4,2.8414,0
mp-1018789,LiO2,0.0,0
mp-9946,ZnS,2.0368,0
mp-17878,BaHo2CuO5,0.0,0
mp-572551,Cs2U(Br2O)2,1.9396,0
mp-1008985,CoN,0.0,0
mp-776273,Zr2N2O,1.6695000000000002,0
mp-757793,Li2Nb(PO4)2,0.3167,0
mp-4478,CaSiPt,0.0,0
mp-753795,Li3BiO3,2.9917000000000002,0
mp-1045659,Zn2Cu9O13,0.0,0
mp-862630,ReRu3,0.0,0
mp-753532,Nb2O3F2,0.2096,0
mp-10429,LaYO3,4.341600000000001,0
mp-5699,K2CuF4,0.0,0
mp-28938,Nb3TeCl7,0.7004000000000001,0
mp-11280,TiBe12,0.0,0
mp-1040917,CaFe2(PO4)2,3.6044,0
mp-1014318,Cr3N2,0.0,0
mp-865031,Mg2ZnB2Ir5,0.0,0
mp-775989,CrFe3Sb2(PO4)6,2.2860999999999994,0
mp-9173,TiO2,2.4757000000000007,0
mp-764415,MnFeCo(PO4)3,0.5134000000000003,0
mp-753727,Y3I7O,2.5815,0
mp-769800,SrEu4O5,0.0,0
mp-765687,VOF,1.2551999999999999,0
mp-866536,NaEu2Sn,0.0,0
mp-8290,BaSnF6,4.9883,0
mp-597,TiNi,0.0,0
mp-3241,Sr(CuGe)2,0.0,0
mp-1045,Nd2O3,3.708,0
mp-21052,Tb2InPd2,0.0,0
mp-28399,H2CS3,1.9796999999999998,0
mp-554079,FeS3N2Cl5,1.3504,0
mp-31440,LuZrSb,0.0,0
mp-760408,LiZnO2,0.0,0
mp-769646,Li2TiCo2O5,1.5688,0
mp-981749,TcAg3,0.0,0
mp-1008530,AlVFeCo,0.0,0
mp-19944,Sr3PbO,0.0,0
mp-1029262,VZn2N3,1.5316,0
mp-755027,In2Sn2O7,0.2812000000000001,0
mp-570040,CuH5C5NCl,1.7729000000000001,0
mp-7499,Tl2Sn2S5,1.3993000000000002,0
mp-20498,YbGeRh,0.0,0
mp-604996,CuH12N2(Cl2O)2,0.6548,0
mp-556576,ZnS,2.0639000000000003,0
mp-18471,Sr2UO5,2.1693,0
mp-568202,Yb6Co30P19,0.0,0
mp-29057,Nb3SBr7,0.7427000000000001,0
mp-1041698,ZnCuP2O7,0.19669999999999987,0
mp-770626,Li6Ni2P(CO4)4,0.0,0
mp-863737,Ho3In,0.0,0
mp-11547,YTlPd,0.0,0
mp-1043707,MgTiAg(PO4)3,0.0,0
mp-662567,Nd12Cu6O25,0.0,0
mp-642650,LiP(HO)2,5.3164,0
mp-556027,SiO2,2.4692,0
mp-557009,ZnS,2.0313999999999997,0
mp-755463,Li3SbS3,2.0987999999999998,0
mp-3395,SrSeO3,3.6958,0
mp-1041156,Zn(CoO2)2,0.0,0
mp-862704,ScZn2Pt,0.0,0
mp-975395,Nd(Mg4Al3)4,0.0,0
mp-560978,Ba4Al2O7,3.5745,0
mp-18561,Ga2AsRh5,0.0,0
mp-3324,Nb2SnO6,1.7399,0
mp-976384,HoB4W,0.27140000000000075,0
mp-29341,K4Au6S5,1.5841999999999998,0
mp-765705,NaV5O8,0.0,0
mp-865424,CsUO3,0.4571000000000005,0
mp-17357,NaSmSiO4,4.2409,0
mp-23991,H6S(NO2)2,5.4258,0
mp-18719,KLu(WO4)2,3.2443,0
mp-1009751,ScC,0.0,0
mp-1009128,MnN,0.0,0
mp-560023,NiSnF6,4.0928,0
mp-979945,Yb3V,0.0,0
mp-1044601,Ca(BiO2)2,1.6582999999999997,0
mp-850744,Fe3(SiO4)2,1.4124999999999999,0
mp-530852,Mg2SiO4,2.3731,0
mp-560370,Ge(PbS2)2,2.0309,0
mp-11714,SiC,2.2226000000000017,0
mp-16866,KNpN3O11,0.10220000000000007,0
mp-27336,CsCuBr3,0.37320000000000003,0
mp-707276,TeH9SN2O5F3,4.2669999999999995,0
mp-774223,K2H2OsCCl5O2,0.5613,0
mp-613785,Yb3Si2ClO8,0.0,0
mp-651279,Co4Si(CO)14,2.5423,0
mp-676330,Nb12Br17F13,0.11929999999999996,0
mp-554479,Ba3BPO7,3.3373,0
mp-29234,InTeI,1.5625,0
mp-541753,Cs2WBr6,0.0,0
mp-1030404,Te4Mo3W(SeS)2,0.10760000000000014,0
mp-559390,CaAl2O4,4.190300000000001,0
mp-559646,KCS(OF)3,5.2646,0
mp-764233,Na8CoO6,0.9511,0
mp-1043436,Sr2YCu2MoO7,0.0,0
mp-720727,GaH15N4(OF3)2,1.5268000000000002,0
mp-30571,Tl2Au,0.0,0
mp-723175,K4CuP6(H4O11)2,0.5959000000000001,0
mp-769527,Li2MgCo13O28,1.0534,0
mp-573548,La3(GaNi2)2,0.0,0
mp-9007,Na6P4W,1.2658,0
mp-10499,LiZr2(PO4)3,4.2387999999999995,0
mp-23138,SbPbClO2,1.9094000000000007,0
mp-2233,Th2Ag,0.0,0
mp-1030108,Te8MoW3,0.5941999999999998,0
mp-6992,Eu(NiAs)2,0.0,0
mp-867802,Sc2CuOs,0.0,0
mp-999203,ScC,0.0,0
mp-8277,Sr(CdP)2,0.7113999999999998,0
mp-568405,K2NbCl6,0.0,0
mp-3153,Na4Ge9O20,0.0,0
mp-631388,CdIrRu,0.0,0
mp-569115,Li2ZnGe,0.0,0
mp-971960,Zn3Os,0.0,0
mp-975,SF6,5.9124,0
mp-631356,NbOsPb,0.0,0
mp-1041326,BaZnSbF7,4.3858,0
mp-555833,Hg3As8(S4Br3)2,2.0132,0
mp-6568,BaCa(CO3)2,4.687,0
mp-30923,Ga5Rh3,0.0,0
mp-779164,Li4Fe2Ni3Te3O16,1.0670000000000002,0
mp-11416,TaGa3,0.0,0
mp-1002188,TcB,0.0,0
mp-30292,Nd4Se3N2,1.3721,0
mp-27655,Te2I,0.6558000000000002,0
mp-9332,KGaPO4F,4.108099999999999,0
mp-554199,RbSnIO6,2.1505,0
mp-755363,Ba3SiO,0.42169999999999996,0
mp-769525,TiV2Fe3(PO4)6,0.0,0
mp-558168,Ba(AuF6)2,1.5741999999999998,0
mp-779959,Li3Co2(NiO4)2,0.0,0
mp-1019739,Eu2Ge(BO4)2,0.0,0
mp-781051,Li5V2Ni3O10,0.3066,0
mp-11390,LiGaSi,0.19090000000000007,0
mp-810,NiSb,0.0,0
mp-631301,HgPRh,0.0,0
mp-555189,Rb2LiC3S3(OF)9,5.8783,0
mp-601823,TaTe2,0.0,0
mp-560476,Rb3NaTiO4,3.2452,0
mp-17407,Au3F8,0.546,0
mp-696174,NaH3C2O5,3.1616999999999997,0
mp-619905,Ti9Se2,0.0,0
mp-12803,BaEr2F8,7.215,0
mp-17997,BaTi2(P2O7)2,0.0,0
mp-975321,LiSi3,0.0,0
mp-1008487,BW,0.0,0
mp-30796,NbSnRh,0.0,0
mp-776002,Ti3Nb2Cr(PO4)6,0.1064999999999996,0
mp-755465,Hg2Pt2O7,0.0,0
mp-862725,ScTc2W,0.0,0
mp-583589,SnH14C4(Br2N)2,2.2939999999999996,0
mp-768074,LiTaWO6,3.2939,0
mp-15617,Cr5B3,0.0,0
mp-764299,Li2VFe(P2O7)2,1.8138999999999998,0
mp-1044451,PrTi2O6,0.0,0
mp-755462,PrHfO3,0.0,0
mp-33500,Cr2HO4,0.0,0
mp-995182,NdB4,0.0,0
mp-9771,UTi2O6,0.0,0
mp-2701,NbN,0.0,0
mp-543017,Dy12(MnC3)5,0.0,0
mp-781503,VOF2,0.8146,0
mp-510727,InTeO3F,3.1763999999999997,0
mp-20121,UFeSi,0.0,0
mp-13067,Tm2O3,4.146,0
mp-4606,U(Al2Fe)4,0.0,0
mp-675690,Ba2PtAu,0.0,0
mp-28599,Na4Br2O,1.9830999999999999,0
mp-971966,Zn3Sb,0.0,0
mp-1046414,SrMgCr(PO4)2,2.8341000000000003,0
mp-766847,WOF3,0.0,0
mp-31070,As8S9,1.7164,0
mp-30806,ZrNiSn,0.0,0
mp-554388,ZnGa3N3O,0.0,0
mp-1043112,Sr2Cu2MoO7,0.0,0
mp-857343,Ge7H8N2O15,2.7924,0
mp-760482,F2,2.9875,0
mp-996999,CuHO2,0.0,0
mp-12387,YbAsO4,0.0,0
mp-13053,SrSi,0.0,0
mp-27529,PI3,2.2746,0
mp-675093,Hf2N2O,2.0867999999999993,0
mp-632296,HF,6.7187,0
mp-556050,P4S(NF)6,2.2497,0
mp-770513,Li8Mn2O7,0.9121999999999999,0
mp-780155,Li9Fe3(OF7)2,1.8077999999999999,0
mp-766317,Ba2CaI6,3.8265000000000002,0
mp-653267,Fe6Sn2(CO)23,2.1295,0
mp-989536,Cs2LiNF6,2.7068,0
mp-625687,H9BrO4,3.5222999999999995,0
mp-504962,K2Na3InO4,1.92,0
mp-769965,Li2Cr3CuO8,0.2200000000000002,0
mp-760134,NbSb3O8,1.8178999999999998,0
mp-568011,K3P5RuSe10,0.9415,0
mp-981367,SrTlO3,0.0,0
mp-30325,In2(Se2O5)3,3.4656,0
mp-3716,TbNiSb,0.3318000000000003,0
mp-551456,Ba2CuClO2,2.3029,0
mp-757911,MgAl10O16,4.406999999999999,0
mp-570471,CdN6,2.7759,0
mp-22369,FeSb6(Pb2S7)2,0.0,0
mp-554012,SClO2F,4.6493,0
mp-752615,Li4(CuO2)3,0.0,0
mp-25301,Ti(SiO3)2,3.3233000000000006,0
mp-572951,CsNaSi2O5,4.4582,0
mp-720112,Sr5Al10(Si7O24)2,4.2338000000000005,0
mp-605047,P2H6C5N2Cl4O,2.6879,0
mp-753781,EuHfO3,0.4795999999999996,0
mp-764786,Li4Mn(OF)2,2.7762000000000002,0
mp-1045514,LiCr2O4,0.7686999999999999,0
mp-28254,LiRuO2,0.0,0
mp-699232,Mg7P2(HO2)8,4.852600000000001,0
mp-560550,BaBi2(B2O5)2,3.3497999999999997,0
mp-6110,Sr2YSbO6,3.5121999999999995,0
mp-558568,Rb2CdSiO4,2.4876,0
mp-878,Ho2S3,1.4612999999999996,0
mp-21742,Ba5AlIr2O11,0.0,0
mp-764654,Li5Fe8(BO3)8,1.3898000000000001,0
mp-549333,NdBi2IO4,1.2653999999999996,0
mp-24038,K2CuH12(SO7)2,0.5616,0
mp-1045868,Cu5O7,0.0,0
mp-776226,Hf2N2O,2.0254000000000003,0
mp-983429,PmDyRu2,0.0,0
mp-1566,SmFe5,0.0,0
mp-24381,H5ClO2,5.2183,0
mp-861577,Li2VO3,1.7501999999999995,0
mp-569941,Ce3Sb3Au2,0.0,0
mp-849465,Mn6OF11,0.06289999999999996,0
mp-1018009,Li2MgSi,0.08880000000000043,0
mp-19426,CaWO4,4.3443,0
mp-7085,Tm2FeC4,0.0,0
mp-20757,MnAlGe,0.0,0
mp-867973,Zn3(PO6)2,0.0,0
mp-1040989,CaTi2(CuO4)2,0.6372,0
mp-4873,Ce2TeO2,0.0,0
mp-37315,Mg3(HO3)2,2.2218,0
mp-1049277,LaMgCrSnO6,2.502299999999999,0
mp-567540,Ga,0.0,0
mp-642493,Hf3Al3C5,0.0,0
mp-867343,Li3Cd,0.0,0
mp-1025702,Te2Mo(WSe2)2,0.12340000000000018,0
mp-19001,SrMnO3,0.8108,0
mp-932,ScGa3,0.0,0
mp-574909,K2NbS7,1.3203999999999998,0
mp-2067,ThGa2,0.0,0
mp-978963,Ti3Be,0.0,0
mp-1042628,Ta2ZnCoO7,2.6746000000000003,0
mp-21589,Ga9Ni13,0.0,0
mp-980061,TbAs3,0.0,0
mp-762279,K2Ti8O17,2.7786999999999997,0
mp-2109,CePt2,0.0,0
mp-706617,Na2AlSi3HO9,4.6627,0
mp-775197,Mn3Nb(PO4)4,0.12919999999999998,0
mp-760092,SbOF,3.0221999999999998,0
mp-1841,SiIr3,0.0,0
mp-571635,CdI2,2.4398,0
mp-18365,RbCuSe4,1.0026000000000002,0
mp-772548,SmCuO3,0.0,0
mp-27252,TlCdI3,2.1764,0
mp-1041702,Mo3(AsO4)4,1.9565,0
mp-553958,Zn3(PO4)2,3.3332,0
mp-861268,LiLaNb2O7,1.3900000000000001,0
mp-11132,KPrTe4,0.16909999999999936,0
mp-27442,RbCrI3,0.15979999999999972,0
mp-5369,PrB2Rh3,0.0,0
mp-18567,CaZn11,0.0,0
mp-12266,CaCuF4,0.7140999999999998,0
mp-779070,Li2NiP2O7,4.312200000000001,0
mp-867189,Pm3Pb,0.0,0
mp-705486,U3Cu2H10(CO10)2,0.7617,0
mp-865800,Yb2BiAu,0.08250000000000002,0
mp-778152,Sc2Pt2O7,1.8009000000000004,0
mp-31517,Ta2CoO6,2.5215000000000005,0
mp-24668,CsHF2,6.5186,0
mp-988,Si3N4,4.245100000000001,0
mp-850221,H28RuS2(N3O5)2,2.3276000000000003,0
mp-29266,CsS,1.7141000000000002,0
mp-1042728,MgCu3(BiO3)4,0.0,0
mp-10144,B2W,0.0,0
mp-37024,Ho10Ti6O27,2.5592000000000006,0
mp-772579,La2WO6,3.4921999999999995,0
mp-1016830,MgTiO3,1.5962,0
mp-19767,DyCoSi,0.0,0
mp-697523,CsCuP3H8O13,0.788,0
mp-778261,Li4TiMn3Cr2(PO4)6,1.1456,0
mp-1263,URu3,0.0,0
mp-27207,K2MgCl4,4.7652,0
mp-5517,Tb(NiP)2,0.0,0
mp-1042115,NiS2,0.0,0
mp-566368,K2Te(WO4)3,2.8047,0
mp-1048587,Ti3AlSe2ClO8,0.39579999999999993,0
mp-22437,Re6P13,0.0,0
mp-757734,LiNbPO5,0.0,0
mp-686175,Si(Bi3O5)5,0.0,0
mp-776497,Li2La3Ti2Nb2O13,0.0,0
mp-1041206,Mg(MoO2)2,1.2347000000000001,0
mp-7148,K2SrTa2O7,2.0693,0
mp-19881,Dy3InC,0.0,0
mp-694318,In2(WO4)3,4.2477,0
mp-991,WN,0.0,0
mp-30763,LiPd2Pb,0.0,0
mp-35690,Co5RuO8,0.0,0
mp-771900,Li3AlCoO4,1.9464,0
mp-976597,Ho2Co7B3,0.0,0
mp-28487,Ge5(Te4As)2,0.21989999999999998,0
mp-541044,CsYO2,2.8477,0
mp-554105,CdAg2GeS4,0.5693000000000001,0
mp-20925,Co3C,0.0,0
mp-1018107,ZrTe2,0.0,0
mp-20550,Ce3PbC,0.0,0
mp-973792,Pa3Tl,0.0,0
mp-6798,Ba2NaReO6,1.8688,0
mp-10059,ZrCo3B2,0.0,0
mp-23046,SrIF,4.3111999999999995,0
mp-757376,KAl11O17,4.587400000000001,0
mp-555056,SbS2NCl6,1.6653,0
mp-686084,Nb12I21Br,0.0961000000000003,0
mp-10627,SrS,1.7902999999999998,0
mp-979044,Tm2CuAu,0.0,0
mp-965,TbB2,0.0,0
mp-867898,DyAgHg2,0.0,0
mp-867901,ScTaTc2,0.0,0
mp-561531,Y2Si2O7,4.5955,0
mp-754848,Na2SnO3,2.3771999999999998,0
mp-1048153,Ba2AlFe3O8,0.0,0
mp-568656,SiC,2.0052000000000003,0
mp-775461,Li2V3FeO8,1.1613000000000002,0
mp-1027034,Te2MoWS2,0.0,0
mp-722866,SbH6CN3F4,4.5806,0
mp-999576,Mn2SiRu,0.0,0
mp-720494,K4TeP4(HO2)10,3.584,0
mp-568912,Be12Nb,0.0,0
mp-1047841,CaMo3P3O13,1.1772000000000005,0
mp-17291,Na3SiTe3,1.9235999999999995,0
mp-703297,H7S(NO2)2,5.2916,0
mp-555838,SnPO3F,3.6818000000000004,0
mp-20227,NaMnP,0.0,0
mp-557668,MnPtF6,1.8679000000000001,0
mp-770745,Li2Cr2O7,1.5210000000000001,0
mp-1019275,TbCuSn,0.0,0
mp-1216,YbO,3.4599,0
mp-1018673,CoPPd,0.0,0
mp-1019783,K2S2O3,3.7496,0
mp-3547,MgSiO3,5.415499999999999,0
mp-684496,SbP2O7,0.0,0
mp-632291,H2,8.8483,0
mp-555880,ZnBi2B2O7,2.5197999999999996,0
mp-5984,Y(BRh)4,0.0,0
mp-776250,Zr2N2O,0.8702999999999999,0
mp-850961,LiFe2OF5,2.1569,0
mp-504934,Sc2CI3,0.5682999999999998,0
mp-1046839,Mg2Nb2CrO8,1.1570999999999998,0
mp-554736,CaB2(H6O5)2,5.4565,0
mp-25380,CuPO4F,0.0,0
mp-849754,Li2Cu(PO3)4,0.1785000000000001,0
mp-18594,K3AsSe3,2.1092,0
mp-27727,CCl2O,4.5857,0
mp-29564,Ba2Mg3Si4,0.0,0
mp-707734,AsHPb4(ClO)4,3.1812,0
mp-778377,Ba5Y3F19,6.0969,0
mp-981541,TmLuRh2,0.0,0
mp-630851,Cs3NaPb4,0.47540000000000004,0
mp-1028743,TeW2Se2S,0.0,0
mp-763350,V3O5F,0.5902000000000003,0
mp-778859,Li3Mn2Fe(BO3)3,2.6271,0
mp-779166,LiCo3NiO8,0.0,0
mp-30445,ZrBe13,0.0,0
mp-849951,Li2Fe4OF8,2.8475,0
mp-1046616,Sr2YV2GaO7,0.0,0
mp-16569,Al17(Re2Si)2,0.0,0
mp-707833,HRu6C16NO16,1.9967,0
mp-554267,SiO2,5.6122000000000005,0
mp-541899,CsCdBr3,2.9022,0
mp-989633,LaWN3,2.3975,0
mp-17186,Ca3AlAs3,0.7296000000000005,0
mp-3647,LiGaS2,2.9608,0
mp-34145,Ce2CdS4,0.0,0
mp-29078,Hg4As2Br3,0.7238,0
mp-867904,AlGeRu2,0.0,0
mp-755714,SrEuO2,0.0,0
mp-8368,Pr3GaC,0.0,0
mp-972249,Sr3Bi,0.0,0
mp-675119,Os(OF)2,0.1775,0
mp-8975,Hg3(AsO4)2,0.9868999999999999,0
mp-866688,Cs4P2PdSe8,1.4224,0
mp-28894,Ba2P3Pd,0.0,0
mp-540379,SbP2O7,0.0,0
mp-12245,Rb3TiF7,3.037,0
mp-865896,YbPmAg2,0.0,0