mp_id,formula,band_gap,fidelity
mp-644,K5Te3,0.17159999999999997,0
mp-866470,Ca2SnS4,0.7710999999999999,0
mp-1045844,YCu3(NiO3)4,0.0,0
mp-1008673,TmCd2,0.0,0
mp-1690,TaS2,0.0,0
mp-976010,Li3Cr,0.0,0
mp-4391,MgSiO3,4.642499999999999,0
mp-607917,La21Fe8Sn7C12,0.0,0
mp-555003,WF6,5.3735,0
mp-1049240,LaZnCrMoO6,1.4599000000000002,0
mp-559928,SiO2,5.4895,0
mp-2091,V3B2,0.0,0
mp-16783,Cd2Re2O7,0.0,0
mp-766543,Li7Ti11O24,0.0,0
mp-19514,Sr2CrO4,1.9682999999999997,0
mp-1367,Mg2Si,0.21690000000000031,0
mp-571394,KC2N3,4.6487,0
mp-777252,LiFeF4,3.3866,0
mp-757493,Ti11H7O24,0.0,0
mp-555104,Na2Er2B2O7,4.3493,0
mp-541090,Ce(SeO3)2,1.2671,0
mp-1008965,CdN,0.0,0
mp-1020122,MgS2O7,5.521100000000001,0
mp-10621,RbSbS2,1.9474999999999998,0
mp-16305,ScPRu,0.0,0
mp-850993,LiMn4(PO4)3,2.7473000000000005,0
mp-645130,Pr4MgCo,0.0,0
mp-631580,BPd2Br,0.0,0
mp-27526,K3InF6,5.322100000000001,0
mp-722880,BaRe2H12C3N6O11,2.9466,0
mp-556532,CaAlB3O7,5.380199999999999,0
mp-34459,Ba(NdS2)2,1.9232,0
mp-571567,CdI2,2.4482,0
mp-623261,PrGaCo,0.0,0
mp-8621,K2PtSe2,0.9345000000000001,0
mp-542863,Ca7NbSi4O17F,3.5274,0
mp-567526,SrMg4,0.0,0
mp-631532,BaBe2Te,0.0,0
mp-555818,Cu2SiPbS4,1.3388,0
mp-568337,ThRh2,0.0,0
mp-1041960,CaCr2O4,0.7989999999999999,0
mp-754055,CsErO2,2.8037,0
mp-776523,NaLi3Ti2Al2(PO4)6,2.5061,0
mp-30675,Ti5Ga4,0.0,0
mp-1008798,ReN2,0.0,0
mp-776003,Mn2V3Cu(PO4)6,0.0,0
mp-29565,PrSiPd,0.0,0
mp-569425,Pr23Mg4Ni7,0.0,0
mp-998201,RbAgCl3,0.0,0
mp-569007,Ga,0.0,0
mp-21421,Pu2SO2,0.0,0
mp-18584,Ho2SiSeO4,2.5657999999999994,0
mp-550306,YCu2Bi2(SeO2)2,0.0,0
mp-776618,Li4VCr3O8,1.9194,0
mp-571363,YbSbPd,0.0,0
mp-999266,ReN,0.0,0
mp-11513,NbNi3,0.0,0
mp-557653,SiO2,4.1137999999999995,0
mp-5322,Pr3IrO7,0.0,0
mp-1044676,CaTi2O4,0.0,0
mp-677709,Na3Sr7Ti7Nb3O30,1.7047000000000003,0
mp-1030201,Te2MoWSeS,0.0,0
mp-973830,KErO3,0.0,0
mp-683984,Al(SeCl)4,1.1038000000000001,0
mp-20780,Tb(MnSn)6,0.0,0
mp-11293,ZrCdCu2,0.0,0
mp-540022,MnPO4,0.5091999999999999,0
mp-2121,ScAl3,0.0,0
mp-860791,AgSbO3,0.28869999999999996,0
mp-697156,BaCu2P2H2O9,0.008000000000000007,0
mp-8516,CdSO3,3.3333,0
mp-1015811,AlCo2Si,0.0,0
mp-1014013,P,0.8832,0
mp-1008875,Mn2Sb,0.0,0
mp-974603,HgF2,0.40170000000000017,0
mp-570857,Y(AlCl4)3,4.0291999999999994,0
mp-31015,Ta3SBr7,0.8115999999999999,0
mp-27815,NbCl3O,2.4017999999999997,0
mp-772426,Li2Cr3O10,2.0244,0
mp-865167,Ca2CdPb,0.0,0
mp-680676,K2Dy4Cu4S9,0.8811,0
mp-1040980,MgCu2(BiO4)2,0.19530000000000003,0
mp-673663,CuGe2P3,0.0,0
mp-6008,Ca3Al2(SiO4)3,4.992699999999999,0
mp-7139,N2O,3.3292,0
mp-680254,Yb7Cl15,0.0,0
mp-23141,Sr5P3BrO12,4.9315,0
mp-676315,Y2GeI2,0.19159999999999977,0
mp-560249,SiH8C2NClO,5.0017000000000005,0
mp-556806,BaNa2(SiO3)2,4.174300000000001,0
mp-679991,CuW3Br7,2.1981,0
mp-11176,Ca3(SiIr)4,0.0,0
mp-753298,PrYO2,0.0,0
mp-20453,TiCoSn,0.0,0
mp-29683,Sr2Ru3O10,0.0,0
mp-754454,Cd(AgO2)2,0.5699000000000001,0
mp-97,Pr,0.0,0
mp-772799,K2SnPCO7,0.0,0
mp-865598,YGa3,0.0,0
mp-648932,Nb2PS10,1.3727,0
mp-560049,CuSeO3,0.0,0
mp-18893,Ca2Mn3O8,1.4426999999999999,0
mp-556776,Sr(PO3)2,5.4197999999999995,0
mp-12763,TbB6,0.0,0
mp-867160,LiCd2Au,0.0,0
mp-773102,Ce4YO9,0.0,0
mp-567914,TeI4,1.769,0
mp-557856,BCl(OF2)2,1.9494,0
mp-972635,SmErHg2,0.0,0
mp-606675,MnGaNi2,0.0,0
mp-2672,K2O2,2.3446999999999996,0
mp-571309,Nd12C6I17,0.0,0
mp-777474,LiFeF4,3.226,0
mp-1046037,Zn2Cr9O13,0.0,0
mp-762351,Li4Ti7O16,2.4529000000000005,0
mp-974452,Re3C,0.0,0
mp-569841,Ba19Li44,0.0,0
mp-8065,K2Ti6O13,2.7535,0
mp-772939,Li5Cu(PO4)2,2.0388999999999995,0
mp-555273,Ca3Ge(ClO2)2,4.1976,0
mp-774354,LiMn2F5,3.1486,0
mp-9749,Sr(BO2)2,4.9456,0
mp-3980,LiSbF6,4.933400000000001,0
mp-505495,KP4N7,3.7455,0
mp-553936,K2Ag4Pd3(NO2)12,1.7352999999999998,0
mp-1003637,LiMn3O6,0.3256999999999999,0
mp-6972,YCuO2,2.6307,0
mp-565,Sn2Rh,0.0,0
mp-21464,CoReB,0.0,0
mp-2175,TlF,2.1967999999999996,0
mp-667495,Os4C12SO12,2.1335,0
mp-8528,Tm(SiRh)2,0.0,0
mp-757388,PH6NO4,4.9684,0
mp-29213,Cd2Ge7O16,2.1004,0
mp-13211,Ag2Te2O7,0.0,0
mp-744025,Sr8Mg3Fe(MoO6)4,9.999999999976694e-05,0
mp-777673,Li2FeF4,3.6433999999999997,0
mp-779101,LiFePCO7,0.0,0
mp-698669,Nd2(MoO4)3,3.5548,0
mp-774763,Ti3Sb2(PO4)6,2.1441,0
mp-9839,K2LiAlF6,7.4418,0
mp-1016120,KMnO2,1.7737999999999998,0
mp-999549,WN2,1.0696000000000003,0
mp-567395,Li15Au4,0.0,0
mp-753868,SbOF,3.5531000000000006,0
mp-504625,V3SiNi2,0.0,0
mp-18884,Na4CrO4,1.8877,0
mp-568066,Pr2CBr,0.0,0
mp-862658,LiCu3,0.0,0
mp-510430,Li13In3,0.0,0
mp-999306,PrAu,0.0,0
mp-772590,Li6V2B4SO16,1.9200000000000002,0
mp-779692,Ti7O8,0.0,0
mp-609151,MgWO4,3.3049,0
mp-557351,Bi(BO2)3,3.4257,0
mp-1030245,Ca3ReN4,0.0,0
mp-3118,Mg3TeO6,2.9101000000000004,0
mp-753737,Li3CuS2,1.9809999999999999,0
mp-9407,Nb3SnS6,0.0,0
mp-772421,KLi2FeO3,2.033,0
mp-699543,Na2Co5Mo4(ClO4)4,2.3344,0
mp-973101,LaHoRu2,0.0,0
mp-554603,K5NaCe2(SO4)6,0.07719999999999994,0
mp-850409,Fe2OF3,1.5199,0
mp-974760,Rb3Th,0.0,0
mp-769725,Li4Ti3Cr3(CoO8)2,0.5375000000000001,0
mp-559405,RbU2SbS8,0.0,0
mp-578,GaAg2,0.0,0
mp-566150,In2Cu3(PO4)4,0.0,0
mp-864970,MnSiTc2,0.0,0
mp-561033,CsCu5S3,0.32530000000000037,0
mp-4103,Sr2Sb2O7,1.3571,0
mp-32755,La2Te3,0.9992000000000001,0
mp-756942,Ba3(BrO)2,2.2005000000000003,0
mp-625142,Re2H4O9,1.9464000000000001,0
mp-759031,Bi19(O9F)3,2.0105000000000004,0
mp-569102,Al7(CN)3,0.0,0
mp-25871,Li3Cu2P5O16,0.2537999999999998,0
mp-643570,NiH2SO5,3.9322,0
mp-707917,H9C2N11O8,2.7521,0
mp-1441,CsO2,0.0,0
mp-975639,Pr3Er,0.0,0
mp-3694,NdPS4,2.2519,0
mp-1042295,Zn(CoO2)2,0.1607000000000003,0
mp-639135,Pr3RuCl3,0.0,0
mp-1043413,Sr2CrCu2O7,0.0,0
mp-1009489,RbTe,0.0,0
mp-759743,Sb5O7F,3.1066,0
mp-20284,PdF2,0.0,0
mp-24397,MgH8SO8,5.2584,0
mp-565692,K3Bi5(PO4)6,4.0534,0
mp-19396,Na4Fe2O5,1.9196000000000002,0
mp-19352,KAl(MoO4)2,3.8863000000000003,0
mp-29676,Dy3AlC,0.0,0
mp-568526,SrHg2,0.0,0
mp-738687,MnH19C6I3N2,2.427,0
mp-28247,K2PtI6,0.8659999999999999,0
mp-7821,VSb,0.0,0
mp-505538,Ti3Al2NiC,0.0,0
mp-754500,LiSn2P4H3O16,2.8496999999999995,0
mp-569544,ZrTe,0.0,0
mp-554441,NaTi2Ga5O12,2.7362,0
mp-1042855,Ca2Mo3O8,1.6638000000000002,0
mp-568380,Tl5Se3,0.0,0
mp-2509,ThRh3,0.0,0
mp-755461,Dy3TaO7,3.3973999999999998,0
mp-696683,K3SnHF8,5.1576,0
mp-27657,Ca2B6O11,5.639,0
mp-5391,Mg2SiO4,4.497299999999999,0
mp-973674,HgN,0.0,0
mp-15695,YAsPt,0.0,0
mp-779703,Na4Sn5O12,1.4095999999999997,0
mp-8759,Cs2ZrO3,3.854,0
mp-781078,Li3V2P4(HO8)2,0.9395000000000002,0
mp-19432,KNaV2O6,3.2404,0
mp-27163,Ga(Ag3Se2)3,0.0,0
mp-567318,TlSbSe2,0.6743000000000001,0
mp-9429,USe3,0.0,0
mp-22441,Ba2MgReO6,0.0,0
mp-722246,SiH10(O2F3)2,6.5957,0
mp-974634,LiAg2Pd,0.0,0
mp-626787,VHO2,1.5267999999999997,0
mp-4481,Ca2SiO4,4.199400000000001,0
mp-24147,AcH2,0.0,0
mp-1048397,BaAlNi4O7,0.41500000000000004,0
mp-770630,RbLi2Cr2(BO3)3,2.0057,0
mp-772105,Li2Zr2O5,3.8868000000000005,0
mp-982243,Y3Sn,0.0,0
mp-542813,K2BeH4(SeO5)2,3.6123,0
mp-30003,AuSO4,1.65,0
mp-4510,DyNiSb,0.3132999999999999,0
mp-1044851,MgSn2(PO4)2,2.6719,0
mp-20563,Ba(CoAs)2,0.0,0
mp-676524,Tb7(CuTe4)3,0.3644000000000007,0
mp-979412,Th3B,0.0,0
mp-35899,LiMoO2,1.8266,0
mp-556939,NpIO,0.0,0
mp-771707,Li2SnBPO7,2.7306999999999997,0
mp-17695,Sc5Sn3,0.0,0
mp-769643,Y(Bi3O5)4,0.0,0
mp-770478,Na6Cu2As(CO4)4,0.0,0
mp-31363,K2TaCl6,0.0,0
mp-989530,SrTcN3,0.5220000000000002,0
mp-721161,MgPH16NO10,4.8216,0
mp-556798,AgHg2PO4,1.1862999999999997,0
mp-772676,Sr2WO5,3.1883000000000004,0
mp-642644,V2H,0.0,0
mp-571147,Hf(SiNi)2,0.0,0
mp-554318,BH11C4BrNF4,5.1175999999999995,0
mp-625915,Ce(HO)3,0.0,0
mp-867234,TbMgHg2,0.0,0
mp-676341,Na2UF6,0.2492000000000001,0
mp-1027609,TeMoWSeS2,0.0,0
mp-22875,TlBr,1.9877,0
mp-8312,Ta5As4,0.0,0
mp-18933,Li2WO4,4.3259,0
mp-667383,SiO2,5.5085999999999995,0
mp-24502,ZnH2(SO4)2,4.6505,0
mp-17008,CaTeO3,3.2937999999999996,0
mp-569830,Te2PdBr6,1.318,0
mp-683600,K3Cr4PO16,2.7012,0
mp-569360,Hg,0.09589999999999999,0
mp-37199,Ce(NdS2)2,0.0,0
mp-22870,InBr,1.2574999999999998,0
mp-581749,CsTm2Cu3Se5,1.2472999999999996,0
mp-542700,RuC4(O2F3)2,0.016199999999999992,0
mp-774424,LiMnVO4,1.3694000000000002,0
mp-738657,K3GdH6(C2O5)3,2.9734000000000003,0
mp-504474,TbHO2,4.7376000000000005,0
mp-15653,CeSi2Ni,0.0,0
mp-15960,Li5AlO4,4.662000000000001,0
mp-8754,NaLiTe,2.2840000000000003,0
mp-22268,ZrPRu,0.0,0
mp-558263,YH24C9N6(ClO)3,4.636900000000001,0
mp-7284,USi2,0.0,0
mp-6912,Mn2Sb,0.0,0
mp-607990,Hf2Co3Si4,0.0,0
mp-23195,Bi2O3,1.6582000000000003,0
mp-1045851,AlCu3(MoO3)4,0.0,0
mp-582182,Cs5In3As4,0.9739000000000004,0
mp-972327,Zr2CoOs,0.0,0
mp-1023930,MoW(SeS)2,0.47550000000000014,0
mp-30578,DyCu5,0.0,0
mp-978498,Sc3Al,0.0,0
mp-977112,NaSrO3,0.0,0
mp-770404,Li4V2Si(PO6)2,1.8049,0
mp-1047386,BiO2,0.0,0
mp-674423,Sr20Ta8O39,0.0,0
mp-554896,SbXe2OF15,1.2419000000000002,0
mp-15837,Nb5Se4,0.0,0
mp-2544,Zr2Be17,0.0,0
mp-1046038,Sr2YTlV2O7,0.0,0
mp-559039,PH3PbCO3,4.1371,0
mp-780525,Mn6OF11,0.44010000000000005,0
mp-705334,Li2V(PO3)5,2.1267,0
mp-757862,K4Nb15O24,0.0,0
mp-510148,UCu5,0.0,0
mp-977440,LiTiPt2,0.0,0
mp-773454,Li5CoO4,1.4065999999999999,0
mp-769662,Li2TiFe2O5,1.3106,0
mp-21309,MgTe(PbO3)2,2.2615999999999996,0
mp-697408,H10C2N2O5,3.4042,0
mp-1046733,CaFeSiO5,0.0,0
mp-31108,Pr12InPt7,0.0,0
mp-8612,Sb2TeSe2,0.4865000000000004,0
mp-1019583,CaAl2SiO6,4.291799999999999,0
mp-33737,Mn3Cu3O8,0.0,0
mp-669309,CsY10(C2I9)2,0.2173999999999996,0
mp-770703,LiSbWO6,2.4585000000000004,0
mp-1020616,RbMgPO4,4.490200000000001,0
mp-542148,Sb2N5F11,3.9603,0
mp-756853,LiBSbO3,0.4794999999999998,0
mp-1045917,MgP4WO12,1.8898000000000001,0
mp-18939,LiCo(CO)4,4.0429,0
mp-704197,Li2Mo(PO4)2,1.6945999999999999,0
mp-1029219,Te2MoW3(Se2S)2,0.0,0
mp-28003,H6OF4,7.3988000000000005,0
mp-1042459,CaSnAs2O7,2.2721,0
mp-8931,Rb2SnAs2,0.6783999999999999,0
mp-976419,Hf3Bi,0.0,0
mp-768921,Li8B2O7,5.509600000000001,0
mp-642019,NdInPd,0.0,0
mp-571335,ThBi2,0.0,0
mp-1007692,HfPd,0.0,0
mp-651311,Cu2WO4,0.6993000000000003,0
mp-607715,PrZnRh,0.0,0
mp-11404,PrGa,0.0,0
mp-9257,Yb(CdSb)2,0.09539999999999971,0
mp-6032,SrSi2(BO4)2,5.4873,0
mp-7229,B5Mo2,0.0,0
mp-604773,Mo8P9H56N12ClO56,2.7585,0
mp-13154,Fe3C,0.0,0
mp-758997,LiCuCO3,1.4634,0
mp-768797,Li3Bi(BO3)2,3.2588999999999997,0
mp-540731,MgB4(H9O8)2,5.2211,0
mp-977414,ZnCu2SiS4,1.2780999999999993,0
mp-557991,H12Pd(N5O4)2,1.9444,0
mp-669359,KNd3Te8,0.43989999999999974,0
mp-3970,K2TiF6,4.7349,0
mp-977592,Bi2Rh3S2,0.0,0
mp-15107,KSnAsO5,2.1357,0
mp-20952,TiNiSb,0.0,0
mp-8960,Ba3NaNbO6,3.0766,0
mp-778814,Tm2WO6,3.6258,0
mp-683986,Yb11(U2S11)2,0.0,0
mp-5109,Y(NiGe)2,0.0,0
mp-16165,Ho3Si3O10F,5.1135,0
mp-1048600,ZnFeSiO5,0.0,0
mp-564,TePd,0.0,0
mp-705635,Na3CaAl3Si3CO15,1.1480000000000001,0
mp-17324,ZrSnS3,0.9949999999999997,0
mp-28044,TmCl3,4.917,0
mp-570240,La14C14Cl9,0.0,0
mp-1044026,LaZnFeNiO6,0.0,0
mp-570723,La5Si5I3,0.0,0
mp-2145,ErSi2,0.0,0
mp-706489,NaB2HO4,5.126,0
mp-4734,NaPO3,4.971,0
mp-30835,TaPd2,0.0,0
mp-781053,LiFeP3(HO5)2,3.6182999999999996,0
mp-1023945,Te2MoWSe2,0.30499999999999994,0
mp-667336,Cs4Zr3Te16,1.0936000000000003,0
mp-1030403,Te2Mo3W(Se2S)2,0.0,0
mp-555211,SiO2,5.6207,0
mp-631450,BeGe2Te,0.0,0
mp-1026909,Mo3W(SeS)4,0.552,0
mp-631472,InFeAs,0.0,0
mp-2093,Pr3Al,0.0,0
mp-10942,KNaLaNbO5,3.6387000000000005,0
mp-18341,ErPtF7,2.2785,0
mp-568848,GaCl2,3.8516,0
mp-763920,Li6Fe5CoO12,1.5568999999999997,0
mp-1016851,HgRuO3,0.0,0
mp-754262,Zn2As2O7,1.7632,0
mp-976952,NaPuO3,0.0,0
mp-557058,ZnS,0.0,0
mp-559374,TiS3,0.0,0
mp-36526,AcOF,4.256600000000001,0
mp-760372,Na5Ti12O24,0.0,0
mp-758880,LiCuPO4,0.3797999999999999,0
mp-568916,K6InTe4Cl,1.9503000000000001,0
mp-568106,Mg41Al67,0.0,0
mp-1040898,ZnP4W3O14,1.4825,0
mp-542417,Cs2MgH12(SO7)2,5.0352,0
mp-861570,Li2FeCo3O8,0.0,0
mp-601774,H14C4NF3,7.115600000000001,0
mp-768247,PtO3,0.0,0
mp-1006352,Er2Co3Ge5,0.0,0
mp-862656,ErAl3,0.0,0
mp-763943,V6O7F5,0.7227000000000001,0
mp-631336,LaMgNb2,0.0,0
mp-7711,Ag2O,0.0,0
mp-649253,NbClF8,3.263,0
mp-1025799,MoSe2,1.1603,0
mp-1016871,ZrHgO3,0.0,0
mp-775984,TiFe3Ni2(PO4)6,0.0,0
mp-5122,Na3AlP2,1.3462999999999998,0
mp-760418,Ba2SrI6,2.9057,0
mp-27749,K2Sb4S7,1.5436999999999999,0
mp-675681,Ba4Er3F17,6.4909,0
mp-763831,Li8Mn(O2F)2,2.4668,0
mp-1045325,Zn(Mo4O5)2,0.0,0
mp-684585,Gd2O3,0.0,0
mp-17188,U(Al10V)2,0.0,0
mp-31404,Mg5Si6,0.0,0
mp-27385,KTlCl4,2.3137999999999996,0
mp-631399,OsPtCl2,0.0,0
mp-555023,KCa4(BO3)3,4.5893,0
mp-21571,La4In5S13,0.0,0
mp-20886,CeZnSn,0.0,0
mp-765171,Li4V3Co3(SbO8)2,0.3433999999999995,0
mp-1029444,KCoN,0.0,0
mp-25229,CuO,0.0,0
mp-771208,Ba5(Ga3O7)2,2.7217000000000002,0
mp-1018120,TmSb2,0.0,0
mp-15221,Rb2NbCuS4,2.0005,0
mp-1046302,CaMnO2,1.0003000000000002,0
mp-978039,Ho4Ga16Co3,0.0,0
mp-672389,MnTe,0.0,0
mp-1026931,Te2Mo3W(Se2S)2,0.0,0
mp-1040910,VO2,0.9116000000000002,0
mp-3930,Sc2MnS4,0.6131000000000002,0
mp-680204,SiO2,5.6081,0
mp-974672,Rb3Er,0.0,0
mp-1001831,LiB,1.4331000000000005,0
mp-6980,ScCuS2,0.8709999999999996,0
mp-570870,Hf5Sb9,0.0,0
mp-849388,V2O3F,0.0,0
mp-568753,TcBr3,0.13080000000000003,0
mp-28170,Ca5Ni15B4,0.0,0
mp-30223,La2Fe2I,0.0,0
mp-573812,Cs3As11,1.3912000000000002,0
mp-605048,H13(C5N)2,3.0987,0
mp-640147,Fe(NiO2)2,0.0,0
mp-28584,Tl2CuI3,1.5759999999999996,0
mp-631314,KTaPt,0.0,0
mp-766173,Sr(RhO2)2,1.3203999999999998,0
mp-976355,Lu3Si,0.0,0
mp-661,AlN,4.039,0
mp-541277,CaYbInS4,0.0,0
mp-36248,H4BrN,4.0508999999999995,0
mp-568090,LaBC,0.0,0
mp-28424,K4P3,0.0,0
mp-570485,SrAlSiH,0.6337000000000002,0
mp-974662,Rb3Pr,0.0,0
mp-758037,Li2Ti3P9O28,0.006699999999999928,0
mp-559781,KY(CO)8,2.0998,0
mp-554315,CaBeB2O5,5.692200000000001,0
mp-866936,CaSnS3,0.24880000000000013,0
mp-1045998,Sr2AlTlCo2O7,0.0,0
mp-637179,Ca3SnN,0.0,0
mp-984358,Au3O,0.0,0
mp-3622,Na2PdF4,1.2395999999999998,0
mp-752529,Li5CrS4,0.9084999999999996,0
mp-571249,Tb,0.0,0
mp-1041248,BaMgBiF7,5.342099999999999,0
mp-753689,Ba2Nb8O11,0.0,0
mp-30097,Bi2Te7Cl8,0.7624999999999997,0
mp-765289,LiSnPO4,3.2874,0
mp-559847,Ag5P(S2Cl)2,1.2617999999999996,0
mp-25908,Sn(PO3)4,3.4585000000000004,0
mp-554673,KZnB(PO4)2,4.7598,0
mp-1044660,CaSn2(PO4)2,2.4956,0
mp-14493,Na5InO4,1.7202000000000002,0
mp-29558,Bi3ClO4,2.3000000000000003,0
mp-19936,Sc(MnGe)6,0.0,0
mp-673845,NbO2F,1.9496,0
mp-619461,WO3,1.3694000000000002,0
mp-776319,LiNbCuO4,0.10179999999999989,0
mp-753539,SbOF,3.354,0
mp-651231,Te2Ru4(CO)11,1.7386000000000001,0
mp-17240,RbNa3Li12(SiO4)4,4.589,0
mp-864906,MgSnIr2,0.0,0
mp-554948,NaI(OF)2,4.2539,0
mp-17939,Na2SiF6,6.8676,0
mp-773498,Na6Sn2O7,1.9928999999999997,0
mp-758096,SbOF3,1.9230999999999998,0
mp-30747,Zn11Ir2,0.0,0
mp-216,Sc2O3,3.8235,0
mp-19879,PPd3,0.0,0
mp-779895,LiCr(PO3)3,2.6112999999999995,0
mp-2229,ZnO,0.7193999999999998,0
mp-542676,Lu2Te4O11,3.2085,0
mp-616672,Ga2Fe2S5,0.0,0
mp-775011,Li2NbFe3O8,1.8009,0
mp-38771,Gd2MgS4,1.3708999999999998,0
mp-1016840,HgOsO3,0.0,0
mp-22496,Nd3TlN,0.0,0
mp-755988,Hf3N4,0.9216000000000006,0
mp-550553,CdBiClO2,2.8418,0
mp-612918,Dy3Ge4,0.0,0
mp-21256,Mn7C3,0.0,0
mp-697558,SbH12C2N6F5,4.946,0
mp-30662,Zn3Ga4Pd7,0.0,0
mp-720110,KRe3Os3(Se4Cl3)2,1.3025,0
mp-557304,Sr2SiCl2O3,5.1218,0
mp-20835,CeSnIr,0.0,0
mp-23045,BNCl2,2.8083,0
mp-756350,TiNbO4,0.0,0
mp-777444,Li3Fe2F7,3.4986,0
mp-776641,Na5CoO4,1.6505000000000003,0
mp-998964,TiGaFeCo,0.0,0
mp-1030373,Te6Mo3WS2,0.01670000000000016,0
mp-645513,HfTl8(MoO4)6,3.4417000000000004,0
mp-27747,PdI2,0.9333999999999998,0
mp-669345,TaTeCl9,2.7776,0
mp-642031,Sr11Al4In3,0.0,0
mp-3776,Er2Mo2C3,0.0,0
mp-644332,KMnF3,2.6891999999999996,0
mp-738609,LiH20C8BrO4,4.6456,0
mp-1025891,Te4Mo2WS2,0.2168000000000001,0
mp-504535,InHO2,1.7764000000000002,0
mp-19205,ErVO3,1.5712000000000002,0
mp-998918,TlFeSe2,0.0,0
mp-553982,K4In2Si8O21,3.8038,0
mp-706287,KCuPH2O5,0.016899999999999915,0
mp-558229,La10S19,0.7225999999999999,0
mp-12382,ErSi2Ni,0.0,0
mp-11834,CuNiSb2,0.0,0
mp-1029665,Sr3BN3,0.4152,0
mp-864890,Hf2FeIr,0.0,0
mp-11517,NbRu3,0.0,0
mp-769517,NaMnPCO7,0.6353,0
mp-976867,Pm3I,0.0,0
mp-866003,ErI3,2.0376000000000003,0
mp-768085,Na2MnPCO7,0.5288000000000002,0
mp-10509,BaGaBO3F2,4.9647,0
mp-20205,Yb2Cu2O5,0.9219999999999999,0
mp-571149,Tb2Fe17,0.0,0
mp-559984,Rb8AlAu3O4,1.2244,0
mp-754776,Sm2Ge5Ru3,0.0,0
mp-540059,Li2Ni(PO4)2,0.0,0
mp-867913,LiHo2Ir,0.0,0
mp-1047653,TaAl(WO4)2,1.8681999999999999,0
mp-683652,Mn2InC10IO10,2.3988,0
mp-779142,Na4Cu2C4SO16,0.007199999999999984,0
mp-555467,Sr2AlCO3F5,5.424600000000001,0
mp-19809,MnCoSi,0.0,0
mp-673071,Li2SnP2O7,3.7003000000000004,0
mp-866168,TiInPd2,0.0,0
mp-860963,Ag2H4(SO4)3,2.8882,0
mp-555120,KGaCuF6,0.0,0
mp-1008876,MnCoS,0.0,0
mp-768295,Ba2YI7,3.0155000000000003,0
mp-743761,LiFe3SiPO8,2.5643000000000002,0
mp-978886,SnB,0.0,0
mp-13042,NaSr3TaO6,3.8787,0
mp-27161,ZnI2,2.9076000000000004,0
mp-2209,CeGa2,0.0,0
mp-2617,B2Pd5,0.0,0
mp-555286,CsNb(PO4)2,2.5389,0
mp-15780,MgPPt5,0.0,0
mp-755333,HgO2,0.3387,0
mp-720670,Na10Zn7Sn7H24(S13O6)2,1.9306999999999999,0
mp-1019546,BaY4Si5O17,4.8104,0
mp-9248,Cu2SiS3,1.2256,0
mp-981933,NaPd2Pb,0.0,0
mp-690561,Mn(SbO3)2,0.0,0
mp-28636,Os2(CO)7,1.9918,0
mp-775699,Li6V3Sb3O16,1.1404,0
mp-31005,Zn3(PO4)2,3.5343,0
mp-1029491,CsCoN,0.0,0
mp-757076,SnP2O7,3.8735,0
mp-698205,LiB(HO2)2,3.5543,0
mp-989616,CaWN3,0.5612000000000004,0
mp-569175,ZrCl4,3.6105,0
mp-569440,TmInAg2,0.0,0
mp-667368,SiO2,5.6294,0
mp-861873,TaTlO3,0.6811000000000007,0
mp-862673,LiY2Ru,0.0,0
mp-979987,YbThPt2,0.0,0
mp-542313,Ce2O3,0.0,0
mp-1026941,Te2Mo3W(Se2S)2,0.0,0
mp-3217,USeO,0.0,0
mp-10445,Sc6FeTe2,0.0,0
mp-1004756,NdB12,0.0,0
mp-865402,TmAlCu,0.0,0
mp-1046198,Ba2Mg2Tl2Sn3O10,0.0,0
mp-754693,Lu(BiO2)3,2.1004000000000005,0
mp-975236,RbPtO3,0.0,0
mp-770741,Mg3(AsO4)2,2.6418000000000004,0
mp-769040,Li5BiO4,2.4425999999999997,0
mp-4187,Ge2N2O,2.6029,0
mp-29606,Rb2Zn3O4,1.4095,0
mp-11406,Pr3Ga,0.0,0
mp-7554,LiMgSnAu,0.0,0
mp-10781,RbGdSe2,1.3089000000000002,0
mp-753821,Pr3GaO6,3.6286,0
mp-766505,RbH2O2F,4.0153,0
mp-766293,Al11AgO17,3.0191000000000003,0
mp-1814,BaAg5,0.0,0
mp-866075,MgTaIr2,0.0,0
mp-973024,La3Hf,0.0,0
mp-27943,W2N,0.0,0
mp-604153,LaCr2Si2C,0.0,0
mp-561622,Cs2AgAsS4,1.5478,0
mp-4790,ThGeO4,3.8957,0
mp-9064,RbTe,0.4281999999999999,0
mp-18983,ErNiO3,0.0,0
mp-631270,ZnFePb,0.0,0
mp-676333,Ga11NO15,1.5736999999999997,0
mp-6278,Zn2Cu(AsO4)2,0.4821000000000002,0
mp-555937,Ca3Cu3(AsO4)4,0.5670999999999999,0
mp-554146,K14In4O13,1.8377999999999997,0
mp-761293,ZrCoO3,0.0,0
mp-6112,K6Na3GaSb4,0.6974,0
mp-865469,Ti2MnRu,0.0,0
mp-704943,Li2Mn3ZnO8,1.5421,0
mp-614444,ZrZn,0.0,0
mp-9999,Ni(BMo)2,0.0,0
mp-556574,Ba2Ca3Tl2(CuO3)4,0.0,0
mp-10749,SrCuSb,0.0,0
mp-721236,Li10Sn(PS6)2,2.339,0
mp-30909,Sm(GaPd)2,0.0,0
mp-1030335,Te4MoW,0.5418000000000003,0
mp-3348,LiBIr,0.0,0
mp-7704,Ca(AlSi)2,0.0,0
mp-676250,Bi2Te4Pb,0.4903000000000004,0
mp-541041,NdAg(PO3)4,3.7001,0
mp-542810,AsS,1.9426,0
mp-23301,BiF3,3.9662999999999995,0
mp-862361,Sc2NiOs,0.0,0
mp-7768,Th2SeN2,1.3591999999999995,0
mp-629511,Ce2SbS5Br,0.0,0
mp-40373,In14Ga3Pt2O8F15,1.9925000000000002,0
mp-6074,KRb2TiF6,0.0,0
mp-756746,Rb4PbO4,1.5927000000000002,0
mp-675076,Sr5U5O18,0.005700000000000038,0
mp-975596,PuIrO3,0.0,0
mp-3785,TlGaTe2,0.5316999999999998,0
mp-23158,He,17.6476,0
mp-31220,AlSiTe3,1.2504,0
mp-974883,Rb3Na,0.0,0
mp-2983,Ba(PN2)2,3.9118000000000004,0
mp-505432,SmBeF4,0.0,0
mp-9512,SrAl2P2(O4F)2,5.4887,0
mp-1041432,ZnCu2(WO4)2,1.1993999999999998,0
mp-760762,NbOF3,3.6434,0
mp-4150,Ca(MnSb)2,0.0,0
mp-11697,TaSb2,0.0,0
mp-980206,TmScRu2,0.0,0
mp-556868,SrCu2Te2(ClO3)2,0.0,0
mp-754220,Tm(CuO2)2,0.0,0
mp-606949,C,0.0010999999999998789,0
mp-4922,MnAlNi2,0.0,0
mp-28435,KFeCl4,1.2994,0
mp-1675,Ho3Ge4,0.0,0
mp-695965,RbNa2P3(HO2)6,5.0053,0
mp-558267,NaLiSiB3HO8,5.2406,0
mp-555726,NaClO3,5.7061,0
mp-30611,ErSnPt2,0.0,0
mp-570791,SiC,1.9695,0
mp-978279,Mg3Cu,0.0,0
mp-510486,Ta3Al2CoC,0.0,0
mp-4521,Tb(CuGe)2,0.0,0
mp-3177,Nd(CuGe)2,0.0,0
mp-30371,Cd5Au3,0.0,0
mp-768414,Li4VS4,0.0,0
mp-30157,Dy3S2Cl5,3.2556000000000003,0
mp-556048,Nb2O5,1.5321,0
mp-541956,CsTiAsO5,3.0051,0
mp-20805,PdPbF4,1.0993999999999997,0
mp-754943,ErBiO3,3.1136000000000004,0
mp-28177,NaSbCl6,2.0358,0
mp-647116,ReNCl4O3,1.4540000000000002,0
mp-20350,DyCoC,0.0,0
mp-643941,CaAl2Si(HO2)4,4.690799999999999,0
mp-29972,Nd2P3Au,0.0,0
mp-3172,Ag3AuSe2,0.026100000000000012,0
mp-652407,Ru(CO)4,2.5854999999999997,0
mp-646116,Na3MgC2BrO6,3.8547000000000002,0
mp-570886,BeI2,4.067699999999999,0
mp-6933,MnN,0.0,0