mp_id,formula,band_gap,fidelity
mp-18995,Ba2FeMoO6,0.0,0
mp-559288,Gd(PO3)3,2.9356,0
mp-1020646,NaLi2B(PO4)2,5.8332999999999995,0
mp-696940,TiH12C2(NF)6,2.8143000000000002,0
mp-863035,PuSb3,0.0,0
mp-1041809,Ta(WO4)2,0.0,0
mp-760599,TiSn(PO4)2,1.6575000000000002,0
mp-14638,Rb2LiGaF6,6.1124,0
mp-863731,InH4NCl4,3.6289999999999996,0
mp-7945,V3S,0.0,0
mp-12368,SbS2NF6,2.6675,0
mp-770750,Li3Al(FeO3)2,2.1165,0
mp-774995,Fe5(OF4)2,0.9343999999999999,0
mp-4513,Ho2Ga8Co,0.0,0
mp-766330,Ba6CaI14,3.0236,0
mp-4816,LaGaS3,2.2220000000000004,0
mp-985594,NaAg(CO2)2,2.5052,0
mp-568927,AgI,0.9588999999999999,0
mp-777457,Li2FeF4,3.5784000000000002,0
mp-611062,EuSb2,0.0,0
mp-1016821,BaSiO3,0.9385000000000003,0
mp-21033,La(GePd)2,0.0,0
mp-757690,LiNb(PO3)4,0.18080000000000007,0
mp-1049202,LaZnCrSnO6,2.2934,0
mp-675354,Li3(RuO3)2,0.0,0
mp-983235,Tl3Pb,0.0,0
mp-27487,Li2ThN2,2.2243999999999993,0
mp-770894,Li2CrPO4F,2.2453,0
mp-24749,CdH6(CO3)2,4.5222999999999995,0
mp-22202,BaTm2CuO5,0.0,0
mp-2352,Na2O,1.8736000000000002,0
mp-768176,TmTaO4,3.5355,0
mp-1029592,Li3YN2,2.0797999999999996,0
mp-1047029,Ca2Nb2MoO8,0.0,0
mp-23780,Na3H(SO4)2,5.1855,0
mp-558108,U3Tl2(IO5)4,1.6891000000000003,0
mp-1018081,CrFe3,0.0,0
mp-11822,Ca3GeN,0.0,0
mp-580744,Hf6Si7Ni16,0.0,0
mp-622108,Ba2TmCu3O7,0.0,0
mp-22071,SbO2,0.0,0
mp-760657,Yb(BO2)3,0.0,0
mp-17652,Tb6Al3Si,0.0,0
mp-569364,Be22Re,0.0,0
mp-551135,BaCuB2O5,0.49439999999999995,0
mp-720853,Na2PH5O6,4.7242999999999995,0
mp-13190,KRb2GaF6,5.8894,0
mp-6938,ZnRh,0.0,0
mp-772486,Lu2Sb2O7,2.0964,0
mp-1044716,SbO2,0.0,0
mp-4208,Ca2RuO4,0.0,0
mp-5401,Sr2B2O5,4.283,0
mp-782047,Ca9La5Cl33,3.6799,0
mp-540549,Al(PO3)3,5.7002,0
mp-675293,Yb(YS2)2,2.1278,0
mp-1015,ZrMn2,0.0,0
mp-676154,Yb(DyS2)2,2.1483000000000003,0
mp-542765,EuDyCuS3,0.062100000000000044,0
mp-570527,Yb5Au4,0.0,0
mp-22667,UFeS3,0.0,0
mp-4262,BeAlB,0.0,0
mp-19886,ThSnPt,0.6738,0
mp-861871,SeI2,0.8854,0
mp-780415,NaEuO2,0.0,0
mp-3696,UNb3O10,0.0,0
mp-7028,YbOF,2.1586999999999996,0
mp-213,CaPd,0.0,0
mp-555608,Na3Sc2(PO4)3,4.7095,0
mp-8601,Te4Mo3,0.0,0
mp-1041911,Mg(NiO2)2,0.035499999999999865,0
mp-673024,LiSn4(PO4)3,3.7885,0
mp-23657,Na6S2ClO8F,4.7796,0
mp-4865,Er(NiGe)2,0.0,0
mp-773359,Li2VCoO4,1.3384,0
mp-558088,AlPO4,5.6341,0
mp-9268,KSe,0.7039,0
mp-554949,Ba6Ru2Pt(ClO6)2,0.6919,0
mp-11361,MgCuSn,0.0,0
mp-32645,Sm2S3,1.8075999999999999,0
mp-675511,Sm2PbS4,2.026,0
mp-707530,Na3AlP2H2O9,4.4885,0
mp-975106,Rb2Bi2O5,0.0,0
mp-2404,CaAl2,0.0,0
mp-489,Ge4Ir,0.0,0
mp-571219,Tl3BiI6,2.4892000000000003,0
mp-862679,TaZn2,0.0,0
mp-22152,NaFeAs,0.0,0
mp-554027,Y7C3I6O,0.0,0
mp-30906,Sr2Al6O11,4.124,0
mp-38327,Ca(TbS2)2,2.1434000000000006,0
mp-865905,YbPmRh2,0.0,0
mp-1033263,HfMg6BO7,0.0,0
mp-684785,BaYbAl2Si2N5O2,1.6482,0
mp-683957,Nd4CuTe5(ClO5)3,1.4889999999999999,0
mp-554808,SnH22(Cl3O5)2,3.1125,0
mp-28018,Be(H2N)2,3.3225,0
mp-941221,Li(BH)5,4.9946,0
mp-1662,Te2Au,0.0,0
mp-10667,SrAgP,0.11359999999999992,0
mp-14388,Ho3Al5O12,4.6662,0
mp-759386,Ce2Th2O7,0.0,0
mp-757207,YH5S3O13,5.6236,0
mp-582360,TaPd3,0.0,0
mp-28288,BaGe2O5,1.8132000000000001,0
mp-1046667,MgCoPO5,0.13090000000000002,0
mp-3196,NdGaO3,3.4528999999999996,0
mp-5248,Na5SnAs3,0.39369999999999994,0
mp-631422,CuSiBr,0.0,0
mp-28843,Tl2SnTe5,0.0,0
mp-567716,AlTlCl4,4.732200000000001,0
mp-7614,Si(Ag4S3)2,0.7551000000000001,0
mp-19851,KInTe2,0.9868999999999999,0
mp-6160,Rb2PO3F,4.313,0
mp-761573,Li4Mn(PO4)2,4.0977,0
mp-28759,Al7(TlS4)3,2.7930000000000006,0
mp-27069,Li3Bi2(PO4)3,4.0424,0
mp-865214,Lu2TcAg,0.0,0
mp-977388,HoMgSn,0.0,0
mp-1030467,Te4Mo3WS4,0.0,0
mp-866813,Ca2SnS4,2.0265,0
mp-6361,NaSr3NbO6,3.2962000000000002,0
mp-864770,Ta2MoOs,0.0,0
mp-757569,LiSn(PO3)4,0.0,0
mp-1047012,Ca2Nb2NiO8,3.0818999999999996,0
mp-1047886,CaMn3P3O13,0.3416000000000001,0
mp-23521,Rb2CrCl4,0.0,0
mp-1013642,Ca3AsP,0.19430000000000014,0
mp-1026918,Te2Mo3W(SeS2)2,0.0,0
mp-19446,CaMn(SiO3)2,3.2619000000000002,0
mp-18271,Na5Ti2Si2PO13,2.5262000000000002,0
mp-40573,FeCu2H21(O5F4)2,0.48969999999999997,0
mp-756460,Ga2HgO4,1.3150000000000002,0
mp-11121,CsTbCdSe3,2.0647,0
mp-3790,SrNb8O14,0.25839999999999996,0
mp-22959,AgClO2,0.9478000000000002,0
mp-1048178,Sb3Se2ClO8,0.5512000000000001,0
mp-611153,CaMnBi2,0.0,0
mp-22962,CsTiBr3,0.0,0
mp-31287,Tl3PdBr5,1.3457999999999999,0
mp-560030,CaF2,6.2478,0
mp-21364,HoCuAs2,0.0,0
mp-571253,Er(Al3Ni)3,0.0,0
mp-1044765,PrMn2ZnO6,0.0,0
mp-975059,MnTl3,0.0,0
mp-696990,NaPH3C2N3O4,3.6132999999999997,0
mp-2282,NiS2,0.0,0
mp-505397,K2PuCl6,0.34739999999999993,0
mp-25469,AlCl3,5.263,0
mp-1018654,BaMgSn,0.0,0
mp-3329,Tb(NiGe)2,0.0,0
mp-1042188,Zn2AgWO6,0.13979999999999992,0
mp-1043523,MnZn(Si2O5)2,2.8729000000000005,0
mp-978910,TbYRh2,0.0,0
mp-23614,SrNb2Bi2O9,2.4638,0
mp-999318,NiBi,0.0,0
mp-7027,InBO3,2.6517999999999997,0
mp-1018936,PrSbTe,0.0,0
mp-698644,Tm2PbS4,0.5497000000000005,0
mp-1029915,Ca2SnN2,0.007899999999999352,0
mp-2995,La2Fe2S5,0.0,0
mp-8614,K3NdSi2O7,3.5564,0
mp-849285,Na8NbO6,0.0,0
mp-1030461,TeMoS,0.0,0
mp-626542,H3NO,0.28659999999999997,0
mp-567503,PbI2,2.4455,0
mp-5584,Ga(MoSe2)4,0.0,0
mp-2991,Cs2UO4,1.8211,0
mp-755070,CeSmO2,0.0,0
mp-20753,CeCoC2,0.0,0
mp-1028558,W2SeS3,0.7471999999999999,0
mp-4674,BNF8,2.9979,0
mp-546568,TaNO,0.0,0
mp-849505,MnFe2(PO4)3,0.0,0
mp-1026929,Te4MoW3(SeS)2,0.0,0
mp-685070,Zr19O40,0.03730000000000011,0
mp-23324,BiSBr,2.0287,0
mp-695906,RbSmH8(SO6)2,5.1941,0
mp-2288,PuSe,0.0,0
mp-30587,MgInCu4,0.0,0
mp-766370,CeZr9O20,2.2773000000000003,0
mp-504880,CaH12CO9,4.8957999999999995,0
mp-697075,Ti3Zn3N,0.0,0
mp-7089,KMgSb,1.2671999999999999,0
mp-30623,Dy5Sn3,0.0,0
mp-973933,NiN,0.0,0
mp-557929,Tl(Cu3S2)2,0.0,0
mp-1045850,Ba2CaMn2CuF14,1.0988,0
mp-1048650,Sr4CaCo2(SO3)2,0.0,0
mp-778102,BaYF5,6.661499999999999,0
mp-721342,MgH12(SO6)2,0.07789999999999986,0
mp-560832,CaH2CO4,5.217,0
mp-560574,Hg2C2N2O,3.1475999999999997,0
mp-29979,Nb3B3C,0.0,0
mp-779863,Hf2N2O,2.0569999999999995,0
mp-1754,UHg2,0.0,0
mp-675073,Na4PtO4,0.0,0
mp-232,DyRh,0.0,0
mp-14107,NpF3,0.0,0
mp-1042994,Cr3(FeO6)2,1.8149000000000002,0
mp-18578,TlZnAsO4,3.1473000000000004,0
mp-510342,Dy2Te4O11,3.2494,0
mp-766269,ZnPH5C2N4O3,4.5292,0
mp-1025574,Te2Mo(WSe2)2,0.17189999999999994,0
mp-20079,CaPbO3,0.9331999999999998,0
mp-540696,Ca3(SiAs2)2,0.823,0
mp-10232,NaMnSe2,0.0,0
mp-758234,P2Pb3O8,3.2125,0
mp-622497,V3O5,0.9892999999999996,0
mp-697945,K2CdH4(SeO5)2,2.9829,0
mp-7739,Ba2ZnF6,4.732399999999999,0
mp-4311,HoAgSn,0.0,0
mp-20660,NpAl2,0.0,0
mp-30836,TaPd3,0.0,0
mp-973646,Lu2ZnHg,0.0,0
mp-24610,LiP(HO2)2,5.5778,0
mp-1046448,SrCr(PO4)2,0.10499999999999998,0
mp-510,TaO2,0.4284000000000008,0
mp-28043,Tl3AgI5,1.0507,0
mp-677121,KBaAl3Si5O16,4.7151,0
mp-28158,K4Be3O5,3.2092,0
mp-556582,Cu(IO3)2,0.48930000000000007,0
mp-1013584,Ba3BiSb,0.0,0
mp-6019,Sr2YNbO6,3.2306999999999997,0
mp-675048,Sr3Nd4O9,3.1139,0
mp-4648,KTeF5,5.2046,0
mp-1048539,Ba2Cr3O7,0.0,0
mp-594,NiS,0.0,0
mp-569607,Pr(GeRu)2,0.0,0
mp-568696,SiC,1.8149000000000006,0
mp-1016819,HfZnO3,0.0,0
mp-557181,K3Na3(NO4)2,4.0476,0
mp-863752,K2ZnH4(I2O7)2,3.1109999999999998,0
mp-626229,H4SO5,5.2564,0
mp-646102,Al3Bi5Cl12,1.8215999999999999,0
mp-1384,LaIr5,0.0,0
mp-1020025,LiB3O5,6.1396999999999995,0
mp-1042300,Ta(WO4)2,2.4493,0
mp-560558,CsCdAuS2,2.0699,0
mp-738611,LiAsH20(C2O)4,0.3721000000000001,0
mp-1018659,CeO2,0.6968999999999994,0
mp-20999,La3InN,0.0,0
mp-10914,K3Cu5O4,1.5555999999999999,0
mp-1047389,BaCa(SnO2)4,0.0,0
mp-540577,KZr2(PO4)3,4.2822000000000005,0
mp-865352,Mg17Al11Pd,0.0,0
mp-1031308,KMg6BO8,0.0,0
mp-756554,Li4Cu3TeO8,0.0,0
mp-776408,YNb2NO5,2.4179,0
mp-9856,Cs2ZrSe3,1.3713,0
mp-542251,LaCdAu,0.0,0
mp-31082,Li4ZrGe2,0.0,0
mp-2541,SmTl,0.0,0
mp-675926,LiBH4,5.6480999999999995,0
mp-30865,TmRh2,0.0,0
mp-17910,Nb5Ge3,0.0,0
mp-975554,Pu3Sc,0.0,0
mp-780441,Li24Mn7Cr5O36,1.004,0
mp-779209,Li4Nb3Fe3(TeO8)2,0.5055999999999994,0
mp-572625,Cs3SrCu2C7(SN)7,2.8882000000000003,0
mp-1029102,Te2MoWSe2,0.11109999999999998,0
mp-759694,Mg2Ti7O15,0.0,0
mp-720406,Na2B5H5O12,0.06840000000000002,0
mp-26702,LiSn2(PO4)3,3.3131000000000004,0
mp-675784,H(CO)2,2.8385,0
mp-997630,ZnO,0.5251999999999999,0
mp-1023943,TeWSe,0.5229999999999999,0
mp-770704,Li2AlFeO4,3.0421,0
mp-650031,La4(GeS4)3,1.9356,0
mp-1048068,Sr2YTi2AlO7,0.0,0
mp-685443,Sn(PCl6)4,1.544,0
mp-627291,V3(H3O5)2,1.5975000000000001,0
mp-15576,Dy3Ga5O12,3.3047,0
mp-865206,TmCdRh2,0.0,0
mp-21511,K2NaInP2,1.0504000000000002,0
mp-974420,Re3Mo,0.0,0
mp-571406,Ga2Pt,0.0,0
mp-21223,YbIn2Ni,0.0,0
mp-8189,LiReO3,0.0,0
mp-1048116,Ba2Co3O8,0.0,0
mp-679948,Os3C8(SO4)2,1.7177,0
mp-1020631,ZnGeO3,1.3775,0
mp-973181,Mn3Zn,0.0,0
mp-699453,RbAs2H5O8,3.8425,0
mp-775239,Li4Mn3Fe(BO3)4,2.9219999999999997,0
mp-10456,HfSiPt,0.0,0
mp-3164,BaSO4,5.950699999999999,0
mp-643579,SbH3OF6,4.6548,0
mp-6521,LiLaTiO4,2.2636999999999996,0
mp-1025896,Mo2W(SeS2)2,0.5867,0
mp-863022,RbTaGeS5,0.9222999999999997,0
mp-13182,Li2TiGeO5,3.4593000000000003,0
mp-1042632,MgMnBiO5,1.1278000000000006,0
mp-19895,NiSb2,0.0,0
mp-1002109,VCo,0.0,0
mp-849798,AgH36S8Br2(N3O4)3,3.1716,0
mp-11667,Nd2(Zn2Ge)3,0.0,0
mp-768572,YAl3O6,4.122,0
mp-3379,K2SbF5,4.6778,0
mp-4596,Sr2RuO4,0.0,0
mp-672274,YbIn4Rh,0.0,0
mp-29914,Er7(NiTe)2,0.0,0
mp-770209,Li3Ti(BO3)2,0.14990000000000014,0
mp-20034,CaPb,0.0,0
mp-540654,RbCdC3(SN)3,3.208,0
mp-559962,SiO2,5.6777,0
mp-625596,H9BrO4,4.166,0
mp-1019791,K2Zn(PO3)4,4.8504,0
mp-8983,CaSiPt,0.0,0
mp-1035484,LiMg14BO15,2.0691999999999995,0
mp-4893,Hf2SnC,0.0,0
mp-3704,Cs2Mn3Se4,0.4400999999999997,0
mp-625801,Sr(H8O5)2,3.8434,0
mp-778079,BaYF5,6.4487000000000005,0
mp-733838,PH5N2O3,2.3806000000000003,0
mp-669331,Ca3Y2(GeO4)3,3.2592,0
mp-770344,Li3V(BO2)5,2.6285,0
mp-20595,Eu(AlSi)2,0.0,0
mp-640381,YbCuS2,0.0,0
mp-21255,FeGe,0.09649999999999981,0
mp-774873,NbS2,0.0,0
mp-555656,CuC2S2(OF)6,0.2384,0
mp-555568,K2Zn(Si2O5)2,4.2665,0
mp-998979,Ti3In,0.0,0
mp-9660,Sr2Cu(BO3)2,0.4861,0
mp-561456,Na3FeS3,0.0,0
mp-30110,SrLaI4,0.0,0
mp-16102,ZnAg2P2O7,2.1142,0
mp-752452,Mg3Te4O11,2.7500999999999998,0
mp-771303,LiMnB2O5,2.1107,0
mp-10141,SmB2,0.0,0
mp-31014,ZrP2S7,1.6602999999999999,0
mp-4361,K4Ta2S11,1.6604999999999999,0
mp-27780,TcCl4,0.7828999999999999,0
mp-13136,WC,0.0,0
mp-657336,MgSiO3,2.4375999999999998,0
mp-12710,PrZnPd,0.0,0
mp-22779,YbSnPt,0.0,0
mp-1047173,YCo(WO4)2,0.17499999999999982,0
mp-556740,NaSiBO4,5.5023,0
mp-17133,Ba3(AlN2)2,1.5661999999999998,0
mp-37070,Pr2SmS4,0.0,0
mp-772781,Lu2B4O9,5.7802999999999995,0
mp-1042475,BaYCrCuO5,0.0,0
mp-540363,VP2O7,1.1998999999999997,0
mp-1041862,MgCr(SiO3)2,2.3232,0
mp-2056,Ni3Se2,0.0,0
mp-1048863,CaLaCrMoO6,1.5053,0
mp-554139,Ba3Ga2(Ge2O7)2,2.2535999999999996,0
mp-7707,Zr(SiNi)2,0.0,0
mp-22939,BiClO,2.5584000000000002,0
mp-676109,Li3InCl6,3.373,0
mp-1016841,HfHgO3,0.0,0
mp-5251,Ca4CN4,1.7906999999999997,0
mp-12645,LiHoO2,4.0322000000000005,0
mp-1043566,CaSn2(PO5)2,2.4987000000000004,0
mp-961662,ZrNiGe,0.0,0
mp-982982,HfH3,0.0,0
mp-18377,ZnS,2.0316,0
mp-705361,LiCrP2O7,1.9503000000000001,0
mp-560961,H11C10NO8,2.7752,0
mp-1006256,CeYTl2,0.0,0
mp-8333,RbNaSnF6,5.100099999999999,0
mp-2323,BeCu,0.0,0
mp-850981,V6O5F19,1.9572000000000003,0
mp-21210,InSb,0.0,0
mp-977359,CaSnAu2,0.0,0
mp-28222,Rb3Sb2Br9,1.9083999999999999,0
mp-20747,LiSi3Pd,0.0,0
mp-644741,In2O3,0.11219999999999963,0
mp-761765,Li3Mn3SiO8,0.9150000000000005,0
mp-22897,HgCl,2.7243000000000004,0
mp-23110,NaHg2IO2,1.379,0
mp-542933,TbMg2Cu9,0.0,0
mp-556702,Ba6Eu(ClF6)2,0.0,0
mp-998946,TlCdSe2,0.0,0
mp-631361,SrZr2Nb,0.0,0
mp-605646,RbBa2N15,3.8238,0
mp-850414,LiB3P(HO3)3,5.988,0
mp-3289,LaMgNi4,0.0,0
mp-288,PtS,0.3669000000000002,0
mp-865037,CeMgAg2,0.0,0
mp-1030408,Te4Mo3WSe4,0.19730000000000025,0
mp-978797,Sm3Hf,0.0,0
mp-862721,Sr2CdPb,0.0,0
mp-24292,Sr2H6Ru,2.2349000000000006,0
mp-5215,NdNiGe2,0.0,0
mp-571314,K2CoCl4,0.7942,0
mp-23179,NiBi3,0.0,0
mp-560721,NaCaBeSi2O6F,5.2919,0
mp-912,LaPt2,0.0,0
mp-22914,CuCl,0.5611999999999999,0
mp-680331,CdHg3C6S6(N3Cl)2,2.0621,0
mp-570184,ThPd3,0.0,0
mp-18335,Ba2Ge2Se5,1.2918,0
mp-1029510,Sr3(BN2)2,2.424,0
mp-777666,Li2V3CrO8,1.1225,0
mp-778623,LiV6O7F5,1.1931999999999996,0
mp-29177,BaTe2F10,4.8809000000000005,0
mp-558358,Ca(B3O5)2,5.8213,0
mp-1041855,Ca3As4W3O16,1.0980000000000003,0
mp-17538,K3SbSe3,2.2931000000000004,0
mp-7461,Hg2SO4,1.9824,0
mp-1044162,PWO5,1.6519000000000001,0
mp-15257,Tb2Se3,0.3403999999999998,0
mp-1048432,Y2MgMn2S2O5,0.0,0
mp-697820,BaLaMnInO6,0.0,0
mp-29816,Ag2HgO2,0.40180000000000016,0
mp-9625,LiMgPO4,5.4297,0
mp-676540,TlSbS2,1.2672999999999996,0
mp-569737,Tb(SiPt)2,0.0,0
mp-5094,Co2(GeSe)3,0.4079999999999995,0
mp-21424,TbNiGe,0.0,0
mp-18795,Mn3TeO6,0.7581999999999995,0
mp-973088,MgInAg2,0.0,0
mp-979258,Tm2CdHg,0.0,0
mp-1042107,AlW3O8,1.4906999999999995,0
mp-29453,SmCl2,0.0,0
mp-23520,InPb2I5,1.8602999999999996,0
mp-28896,CuBIr,0.0,0
mp-559096,Rb2TeH6SO10,3.0601,0
mp-553914,KCdCu7Se2Cl9O8,0.0,0
mp-10973,K2Ga3CuSe6,1.0807000000000002,0
mp-768766,Tb3SbO7,2.9589,0
mp-24273,CdH20C4S4(NO6)2,4.837,0
mp-7208,Yb2Se3,0.0,0
mp-29429,TeCF3,2.5038,0
mp-571655,B4C,0.0,0
mp-1840,TiO2,2.2984,0
mp-11660,Hf3N4,1.0251000000000001,0
mp-862933,PmMgAu2,0.0,0
mp-10270,ScCo3C,0.0,0
mp-558725,Ba5Ru2Br2O9,0.4718,0
mp-29877,K2ReH9,5.2166999999999994,0
mp-22739,BaFe2S3,0.0,0
mp-975382,RbCaO3,0.0,0
mp-560478,BaY2Si3O10,4.8148,0
mp-983430,HfZnPt2,0.0,0
mp-12961,YAlPd,0.0,0
mp-675462,Mo2RuSe4,0.4815000000000005,0
mp-17167,Be3Cd4Si3TeO12,2.8787,0
mp-753233,Sb6O5F8,3.3506,0
mp-504498,K2CdPb,0.0,0
mp-540759,Al2CoCl8,0.3251,0
mp-24638,Mg3P2(HO)16,4.9866,0
mp-772968,LiTlPHO3,3.9939000000000004,0
mp-570556,Sr(InAu)2,0.0,0
mp-978524,Si3Ag,0.0,0
mp-758287,Li3Ti2(PO4)3,0.3720000000000008,0
mp-1002197,RuN,0.0,0
mp-505155,UCr5P3,0.0,0
mp-672233,N2,6.5645,0
mp-675531,NaBiS2,1.0899999999999999,0
mp-765618,Mn6O7F5,0.23039999999999994,0
mp-23807,AlHO2,5.6572000000000005,0
mp-5544,U(Al2Cr)4,0.0,0
mp-28933,Br2O3,1.7587,0
mp-541010,Li2Ni12P7,0.0,0
mp-769405,Ho(Bi3O5)4,0.0,0
mp-7113,CrAuS2,0.5956000000000001,0
mp-1018804,MnS2,0.0,0
mp-4182,CrAgS2,0.7286999999999999,0
mp-774922,Ti3TeO8,3.1569999999999996,0
mp-504790,LiYSn,0.0,0
mp-1014324,C3N,0.0,0
mp-556831,AlSeS2N2Cl5,2.2479,0
mp-561185,Cs2Sn2Hg3S8,1.6112,0
mp-2781,ScPd,0.0,0
mp-743752,Al4C3,0.0,0
mp-864883,MgSnPd2,0.0,0
mp-11469,PrHg,0.0,0
mp-11364,TiCu,0.0,0
mp-976590,HoTlRh2,0.0,0
mp-777738,Al(HO)3,4.9382,0
mp-21387,CeInPd,0.0,0
mp-973232,NdTm3,0.0,0
mp-554265,ZrSCl6O,3.2640000000000002,0
mp-16358,ZnNi2Ge,0.0,0
mp-706629,NaB2H5O6,5.2761,0
mp-5126,ZnSO4,3.8158,0
mp-1046651,MnZnPO5,1.0373,0
mp-776054,Li2MnCuO4,0.0,0
mp-690591,Na3(CoO2)4,0.0,0
mp-569787,Al(BH4)3,6.2431,0
mp-754152,YBiO3,2.4743000000000004,0
mp-4551,SrHfO3,3.7293,0
mp-10735,Zr2O,0.0,0
mp-850422,Fe3(O2F)2,0.0,0
mp-9752,Li2NbF6,0.0,0
mp-9556,SrZnSi,0.0,0
mp-8543,Na3AlAs2,0.8472,0
mp-541912,ZrBrN,1.4423,0
mp-752728,Rb2S2O7,5.0587,0
mp-555812,NaSr3BiO6,1.7251000000000003,0
mp-12075,Tb(FeB)2,0.0,0
mp-631339,Na2LiTa,0.0,0
mp-849059,NiS2,0.0,0
mp-28421,Cs2HgI4,2.0398,0
mp-36254,Cs2TaS6,0.0,0
mp-30437,CaSnPd,0.0,0
mp-1048023,CaMo4O9,1.0328999999999997,0
mp-865842,Ti2OsRu,0.0,0
mp-38807,Y7ReO14,0.9237000000000002,0
mp-24614,BeH8(NF2)2,6.648,0
mp-9847,YbP5,0.0,0
mp-775493,Li2Fe3WO8,0.9396,0
mp-21382,Dy2AlGe2,0.0,0
mp-861935,CaSnRh2,0.0,0
mp-28559,Na6Be8O11,3.6365,0
mp-1029937,TeMoWSeS2,0.0,0
mp-641575,Cr21(WC3)2,0.0,0
mp-1047507,Mg3Cr3(AsO4)4,1.4471000000000003,0
mp-26271,Li2Sn(PO3)4,4.059200000000001,0
mp-12755,ThRh,0.0,0
mp-555896,Pr9(SbO)5,0.0,0
mp-510426,Ta4Te16Pd3,0.0,0
mp-12105,RbO2,0.0,0
mp-19763,EuGe3Pt,0.0,0
mp-510752,CuO,0.14659999999999984,0
mp-756531,LiNd6(CuO6)2,0.0,0
mp-641069,Pr5NiPb3,0.0,0
mp-676291,Ta6Te3S,0.0,0
mp-504748,P3Pb5ClO12,3.3891000000000004,0
mp-977398,TbCdAg2,0.0,0
mp-30501,Ti2Cd,0.0,0
mp-777814,Na6Sn2O7,1.3569999999999998,0
mp-1247,Sb2Ir,0.4870000000000001,0
mp-770671,Li4Cr5Sn3O16,0.2054999999999998,0
mp-996942,Ba6In2NF,0.0,0
mp-22694,LiPPbO4,3.5252,0
mp-756495,Li3CuO2,2.554,0
mp-9339,NbP,0.0,0
mp-556597,In3S4,0.0,0
mp-760492,Na4PtO4,0.81,0
mp-8405,Li3LaSb2,0.20389999999999997,0
mp-567467,CdH12C4Br3N,3.4554,0
mp-769881,Li3CrF6,3.9332,0
mp-27549,K2AgBi,0.6777,0
mp-510459,MnVCuO4,1.0457,0
mp-1040952,TiP2O7,2.4134,0
mp-768303,DyNbO4,3.9158,0
mp-6844,KLi3Si12(SnO15)2,4.4356,0
mp-760088,MgTi23O40,0.0,0
mp-560748,SbCl3F2,1.6945000000000001,0
mp-626543,H3NO,2.4233000000000002,0
mp-769061,Bi4(BO4)3,0.0,0
mp-9841,Er2(SO4)3,5.8883,0
mp-992,CaGa2,0.0,0
mp-1043686,CaBiSbO5,2.5549999999999997,0
mp-560146,Ba17Y16Zn8Pt4O57,2.2817,0
mp-557930,SiO2,5.6398,0
mp-758221,CaH12S2(NO5)2,4.7208000000000006,0
mp-551886,Na4CO4,2.0001999999999995,0
mp-756376,Li3Nb4ZnO12,0.0,0
mp-1008226,CrFe2Sn,0.0,0
mp-862,CaSi2,0.0,0
mp-2503,Pd7Se4,0.0,0
mp-1029536,MgZrN2,1.3222,0
mp-2225,Be2Fe,0.0,0
mp-30482,Ca3Tl,0.0,0
mp-755792,LuGaO3,3.6376,0
mp-21187,CaIn,0.0,0
mp-775013,Li4Mn3Fe3(SbO8)2,0.5973000000000002,0
mp-773161,NbV5(PO4)6,0.0,0
mp-776061,Li4Ti3Mn3Nb2O16,1.0360999999999998,0
mp-674366,Tl3SiF7,3.6851999999999996,0
mp-21410,FeS,0.0,0
mp-569764,RbCu2I3,2.0713,0
mp-19985,TlIn(PSe3)2,1.4263000000000003,0
mp-11533,ZrZnNi4,0.0,0
mp-974625,Re3Ru,0.0,0
mp-774399,LiMnF3,3.4213,0
mp-558159,BaTi2O5,2.8003,0
mp-30563,ZrCoSn,0.0,0
mp-979980,VPd3,0.0,0
mp-1018764,Li3HoSb2,0.0,0
mp-959,LaAl3,0.0,0
mp-766374,LiSiBiO4,3.3375000000000004,0
mp-559748,NdGaGe2O7,2.8601,0
mp-754218,Tb2SeO2,2.1367000000000003,0
mp-644222,CdHClO,2.4635000000000002,0
mp-13588,CsB(CN)4,6.3597,0
mp-5282,AgCO2,2.3379000000000003,0
mp-770533,Li6MnO4,2.6186,0
mp-764668,Fe4OF7,0.8031999999999999,0
mp-18043,Sr6YSc(BO3)6,4.4962,0
mp-778866,Li4Mn3Fe(BO3)4,2.997,0
mp-4809,Ga2HgS4,1.5714,0
mp-1989,Ta5Si3,0.0,0
mp-504211,LiSn(PO3)3,4.0722,0
mp-640340,Ca4MgAl3,0.0,0
mp-978785,Si4MoPt3,0.0,0
mp-696497,Mg3Si4(HO6)2,5.1766000000000005,0
mp-705061,UAg2(WO5)2,1.0358,0
mp-8133,LaPO4,4.7024,0
mp-558412,H2CO2,4.8418,0
mp-849286,Ba(GaS2)2,2.8998999999999997,0
mp-545379,InBiO3,0.049599999999999866,0
mp-779282,Li9Bi5O13,0.5211999999999999,0
mp-1046970,BaZn(SbO2)4,0.0,0
mp-541894,Pr2Co3Ge5,0.0,0
mp-777887,Li3VF5,2.5404,0
mp-779054,LiV2(OF)3,0.6937,0
mp-777292,Ba3Y2Br12,3.7767999999999997,0
mp-850359,Li5Fe5(CoO6)2,1.4185999999999996,0
mp-1043310,CaCu3(WO3)4,0.0,0
mp-567431,ThCl4,3.6379,0
mp-648053,NaPO3,4.7410000000000005,0
mp-643265,ReF7,1.9773,0
mp-1027140,MoW3(SeS)4,0.6412999999999998,0
mp-9514,Mg(AlC)2,1.7481,0
mp-27918,Sc3Si4Ni11,0.0,0
mp-5590,YMgGa,0.0,0
mp-774417,Sn3P6WO24,2.7096,0
mp-554648,Ag5IO6,0.01650000000000018,0
mp-11419,ThGa2,0.0,0
mp-550474,Li4CO4,3.9008000000000003,0
mp-697788,MnP2O7,0.0,0
mp-686056,Fe(Mo3Se4)2,0.0,0
mp-561424,KAlF4,6.9091,0
mp-758944,LiBi(PO3)4,4.4348,0
mp-774411,Li2VO2,1.9118000000000004,0
mp-753939,LiSnPO4,3.4982999999999995,0
mp-1043118,Cu3(MoO3)4,0.3216999999999999,0
mp-1049236,Ba2YMn2F11,3.7117999999999998,0
mp-1047341,Ca(BiO2)2,1.1443000000000003,0
mp-13287,BaCuTeF,0.9836999999999998,0
mp-4779,Li2B4O7,5.668,0
mp-775430,LiBi3(IO2)2,1.7551999999999999,0
mp-1047067,ZnFeO2,0.38010000000000055,0
mp-559965,Sr5As3ClO12,3.8285000000000005,0
mp-570847,CoH3(CN)6,4.1766000000000005,0
mp-2968,Sr(MnSb)2,0.0,0
mp-30519,Tl3PbCl5,3.2824000000000004,0
mp-5381,U2PN2,0.0,0
mp-773103,ErTa7O19,3.1747000000000005,0
mp-568357,K4La6OsI14,0.0,0
mp-777082,TiNi3Sn2(PO4)6,1.9098000000000002,0
mp-555487,SnO2,0.8384,0
mp-555790,Tl2C3O4,2.9206000000000003,0
mp-631254,KMnRu,0.0,0
mp-554568,H10C3NClO,5.3104000000000005,0
mp-674176,Li2PbO3,0.15359999999999996,0
mp-772200,Na6Fe2As(CO4)4,0.0,0
mp-9379,Sr(SnAs)2,0.028300000000000658,0
mp-626006,H4N2O3,2.0109000000000004,0
mp-690516,Sr2Co2O5,0.6818999999999997,0
mp-1019599,CePO4,0.0,0
mp-13974,Ho2SeO2,2.1517000000000004,0
mp-999307,OsN,0.0,0
mp-8324,Dy2S2O,2.5645,0
mp-757845,LiNb(PO3)4,1.0876000000000001,0
mp-557366,NaCdH3(CO2)3,4.3046999999999995,0
mp-766885,Sb3PO7,2.2365,0
mp-752449,La2B4O9,4.491899999999999,0
mp-22396,Nb4SiNi,0.0,0
mp-573727,Bi8SbAuBr9,1.1646,0
mp-978555,Sm2CdIr,0.0,0
mp-561167,Nd2Zr2O7,0.0,0
mp-560904,CdHg2SO6,1.3171,0
mp-21724,ZnSiPbO4,3.1014000000000004,0
mp-8196,AgNO3,1.7070999999999998,0
mp-675199,NaPrS2,2.0519,0
mp-559521,InBi2S4Cl,1.5605000000000002,0
mp-35663,Sr(InTe2)2,1.0210000000000004,0
mp-760151,LiAgF3,0.16959999999999997,0
mp-622195,CsSO3F,5.1506,0
mp-22204,Co2P,0.0,0
mp-20796,InPt3C,0.0,0