mp_id,formula,band_gap,fidelity
mp-559598,LiScF4,6.1137,0
mp-21504,V4GaSe8,0.0,0
mp-1042429,Mg2Bi3O8,0.0,0
mp-31441,Li2GaIr,0.0,0
mp-579677,ZnB3Ir4,0.0,0
mp-673156,Li2NbP4O13,0.40549999999999997,0
mp-769348,MgSnO3,2.0089999999999995,0
mp-7913,BeSiN2,5.1459,0
mp-11028,K3Hg11,0.0,0
mp-6208,Ca2BeSi2O7,4.9868,0
mp-761454,Sn(WO3)3,0.0,0
mp-754117,YHO2,4.8376,0
mp-767609,LiVF5,2.2184999999999997,0
mp-865534,YBr2,0.0,0
mp-754185,Y2MgNi2,0.0,0
mp-776484,Li6Sn3P8O29,3.1607000000000003,0
mp-18262,HoAgS2,1.7807999999999997,0
mp-1759,UF5,0.0,0
mp-570420,Nb2CrSe4,0.0,0
mp-1020662,Rb4B2S4O17,5.153700000000001,0
mp-1878,HfBe13,0.0,0
mp-758238,Na2ZnPHO5,3.6144,0
mp-8585,Pd(AuF4)2,0.0,0
mp-24566,MgH8(IO5)2,4.1474,0
mp-23745,H8Se(NO2)2,3.6061,0
mp-14246,Ba(AlS2)2,3.6496999999999997,0
mp-840,SmRh2,0.0,0
mp-560293,LiLa5Ti8O24,1.9348999999999998,0
mp-568673,Y(SiRu)2,0.0,0
mp-558195,Ba2HoB2ClO6,4.0836,0
mp-542138,Ca3Si2Ni3,0.0,0
mp-12894,Y2SO2,2.9934999999999996,0
mp-744187,Na2Ni4Mo4(HO4)5,0.0,0
mp-680432,Sr10Al6O19,3.6919000000000004,0
mp-484,Te3As2,0.4366999999999992,0
mp-9664,K3BP2,1.6660000000000001,0
mp-223,GeO2,3.2493,0
mp-4711,Li2CuO2,0.0,0
mp-14276,RhPb2F7,1.7702,0
mp-558208,RbInAs2O7,2.5506,0
mp-770932,LiSbO3,2.6465,0
mp-753823,CeTh3O8,1.7800000000000002,0
mp-777787,HoAsO4,3.6677999999999997,0
mp-542058,Tl3B3Se10,1.3101000000000003,0
mp-81,Au,0.0,0
mp-972524,SmSiAg,0.0,0
mp-12355,Sr2YTaO6,3.8449999999999998,0
mp-560799,NaNdH2S2O9,5.7376,0
mp-27724,BPS4,2.2625,0
mp-755760,CuBi(PO4)2,0.0,0
mp-17015,K4GeO4,2.7837,0
mp-556413,Na4Cd2Si3O10,2.7504999999999997,0
mp-5402,CaTl2O4,0.04610000000000003,0
mp-29273,Ca2Ge7O16,2.8625000000000003,0
mp-554874,CuGeO3,0.0,0
mp-29165,Li3Si3Ag2,0.0,0
mp-20261,Mn(GaSe2)2,0.8566,0
mp-773515,Te3WO12,1.5961000000000003,0
mp-20439,CeAl,0.0,0
mp-1027911,Te4Mo3WS4,0.0,0
mp-3907,Er(SiIr)2,0.0,0
mp-555064,Cd(CO2)2,3.2979999999999996,0
mp-1915,Fe2B,0.0,0
mp-777460,MnPO4,0.6794000000000002,0
mp-768341,Ba2YBr7,3.3024000000000004,0
mp-15222,Rb2NbCuSe4,1.6771,0
mp-11912,NaNd2IrO6,0.0,0
mp-756936,Sr3Li4La5O12,0.0,0
mp-693857,NaLi2Al3(SiO4)3,2.955,0
mp-1048179,BaCu4O7,0.0,0
mp-864968,MnInRh2,0.0,0
mp-1029943,Ca3GaN3,0.8826,0
mp-24625,KHCN2,3.8763,0
mp-30395,ScInAu2,0.0,0
mp-709058,K3ErH9(C3O7)2,0.30590000000000006,0
mp-29598,NaP4N7,4.214,0
mp-753459,Nb3O7F,1.4918,0
mp-707955,Ru4C12N2O13,1.57,0
mp-704306,K2U2MoO10,1.6901,0
mp-569378,Rb3Ta2AgSe12,1.425,0
mp-14765,Ba(Ni5P3)2,0.0,0
mp-8202,CsRb2PdF5,2.2311,0
mp-1018102,ZrPd2,0.0,0
mp-19126,NdCrO4,0.2471000000000001,0
mp-5690,GdScO3,3.1418000000000004,0
mp-693340,Al4Zn4P8H13N3O32,4.1775,0
mp-771335,Na3SnPCO7,3.4857,0
mp-569037,Y3H2,0.0,0
mp-770542,MnP2O7,1.2775,0
mp-1019803,KAl9O14,4.1426,0
mp-782650,LiMnP2O7,1.0318999999999998,0
mp-20944,Sr2PbO4,1.3966000000000003,0
mp-707104,H4N2O3,3.1871,0
mp-1008753,Ti2Al,0.0,0
mp-978534,SiGe,0.40580000000000016,0
mp-851090,SrLaCl5,3.3844,0
mp-35388,LiSmSe2,1.5106,0
mp-706303,KCa2P4H9O17,5.3696,0
mp-569759,Zn5(BRh2)4,0.0,0
mp-1006132,Hf3Pb,0.0,0
mp-555199,TlHgAsS3,1.5811000000000002,0
mp-10907,PuAl3,0.0,0
mp-28630,Na3BN2,1.6479,0
mp-1030459,Te2Mo2SeS,0.025299999999999656,0
mp-541771,Bi4RuI2,0.45189999999999975,0
mp-583646,Na2Gd2B2O7,3.0607000000000006,0
mp-6175,BaLi2P2O7,5.361800000000001,0
mp-24262,KP(HO2)2,5.3629999999999995,0
mp-554682,SiO2,5.7065,0
mp-19896,Li2GePbS4,2.2649000000000004,0
mp-19907,In2Se3,0.0,0
mp-755450,La2Ce2O7,2.1894,0
mp-1045729,MgCu(PO3)4,0.19700000000000006,0
mp-1048461,Ba2Mn2TlO7,0.0,0
mp-768920,Ho2(SeO3)3,4.5173,0
mp-20024,LaCuSn,0.0,0
mp-20256,K3InP2,0.7887,0
mp-752734,LiAg2F4,0.031000000000000028,0
mp-29240,LaSi2Ru3,0.0,0
mp-631309,LiHg2Os,0.0,0
mp-866139,TiBe2Ir,0.0,0
mp-610469,CeBiS2O,0.0,0
mp-4579,LaSiRu,0.0,0
mp-1696,CdPd,0.0,0
mp-752924,NaYbO2,0.0,0
mp-9978,ErSe2,0.0,0
mp-1008987,IrN,0.0,0
mp-2136,Sb2O3,2.2239000000000004,0
mp-27702,InClO,2.3644999999999996,0
mp-757100,LiCoS2,0.6835999999999998,0
mp-570141,Sm2(PPt2)3,0.0,0
mp-2205,LuPd,0.0,0
mp-768510,Ba4Sn3O10,1.1901000000000002,0
mp-680754,Ca5CuPb3,0.0,0
mp-21581,Tb(FeSn)6,0.0,0
mp-22687,BaIn4,0.0,0
mp-84,Sn,0.0,0
mp-861941,Ho2PdRu,0.0,0
mp-974038,Ni2W4C,0.0,0
mp-27895,ErNiB4,0.0,0
mp-22003,NaN3,4.0245,0
mp-541895,Na2(ReS2)3,1.4417,0
mp-754086,Li2CuS2,0.0,0
mp-973748,LiIn3,0.0,0
mp-12666,Be12Pd,0.0,0
mp-626456,As3HO6,3.0456,0
mp-770967,Li2MnP2O7,4.0774,0
mp-777669,Li2FeF4,3.3555,0
mp-780891,Fe4O7F,0.0,0
mp-21770,Cu4As2O9,0.0,0
mp-776260,Zr2N2O,1.6503999999999999,0
mp-29826,ZnCN2,3.4511,0
mp-728,Li2Pd,0.0,0
mp-19176,La2NiRuO6,0.0,0
mp-1018129,Pt2W,0.0,0
mp-554885,Ba3Si6N4O9,4.372,0
mp-631880,Na2SrFe,0.0,0
mp-722369,Na3B5(HO5)2,4.6581,0
mp-979026,SmTm3,0.0,0
mp-867362,K2SrIn7,0.0,0
mp-28707,PrNb5O14,1.9449,0
mp-770431,Ho2(SeO4)3,3.7327,0
mp-768160,Li2BiPCO7,3.6529,0
mp-23738,RbMgH3,2.5404999999999998,0
mp-10609,Lu3SnC,0.0,0
mp-348,TmPd,0.0,0
mp-1047315,Ca(SbO2)2,0.6259000000000006,0
mp-1045350,Ti2ZnS4,0.0,0
mp-1916,YbSb,0.0,0
mp-973109,NdYIr2,0.0,0
mp-1043588,ZnFe(GeO3)2,1.2894,0
mp-1045833,Mn9O13,0.0,0
mp-865656,TiMn2W,0.0,0
mp-20714,FeSb2,0.0,0
mp-28771,Sr2FeN2,0.0,0
mp-769229,Ho2Bi2O7,0.0,0
mp-30737,YMgAg,0.0,0
mp-8547,PdPtF6,0.7715000000000001,0
mp-1030462,Te2Mo3W(SeS2)2,0.0,0
mp-542545,K3Nb2AsSe11,1.1647999999999998,0
mp-10120,NdBPd3,0.0,0
mp-865779,Ga2CoRu,0.0,0
mp-554741,KErP2S7,2.6558,0
mp-766856,CuPO3,0.8381999999999996,0
mp-770688,Li4CrO5,1.3916,0
mp-542644,Zn2In2S5,0.0,0
mp-1043200,Mg(Co2O3)2,0.3072999999999997,0
mp-13985,Li2PdF6,1.8867,0
mp-560192,TaP4(SCl)5,2.1765,0
mp-1020621,RbBe2B3O7,4.865,0
mp-995226,H2CO,6.0267,0
mp-779897,Fe6O7F5,0.2483000000000002,0
mp-29056,La3InC,0.0,0
mp-640075,FeSiGe,0.4379999999999997,0
mp-1006059,Tl3Bi,0.0,0
mp-5166,Ca(AsPd)2,0.0,0
mp-554057,KPr(SO4)2,5.5718000000000005,0
mp-11118,CsPrCdSe3,1.9664000000000001,0
mp-19750,BaGd2PtO5,2.1917999999999997,0
mp-976939,Ho2OsPt,0.0,0
mp-1279,TaN,0.0,0
mp-697821,Sm6Fe6As6O5F,0.0,0
mp-995236,GeH6CI3N,0.9326999999999999,0
mp-706291,Ca2B8H2O15,5.576099999999999,0
mp-15898,Dy2Co3Si5,0.0,0
mp-1044122,MgP2(WO5)2,1.2356999999999996,0
mp-29524,K3BiO3,2.9552,0
mp-7522,Th2SbN2,0.0,0
mp-648289,Os3C8SO8,1.7639,0
mp-16966,Ce(Al10Co)2,0.0,0
mp-510593,Dy5CoSb2,0.0,0
mp-1047404,Zn(SnO2)2,0.0,0
mp-27682,NaSnS2,0.0,0
mp-975275,RbNa2Sb,0.5722999999999998,0
mp-757800,LiCuCO3,1.5920000000000005,0
mp-685632,Ba7U7O24,0.0,0
mp-690539,CrNiF6,1.5409000000000002,0
mp-1563,CaSi,0.0,0
mp-24419,SrLiH3,1.8195000000000001,0
mp-55,Sn,0.0,0
mp-541101,HoH18C3S3(O2F)9,5.9498,0
mp-559377,IOF3,3.6275000000000004,0
mp-850511,LiFeO2,1.8933,0
mp-1041996,Ca(MoO2)2,0.3969000000000005,0
mp-10927,SrC2(SN)2,3.7833,0
mp-567798,Hg4AsI5,0.9168,0
mp-9994,Ho11Ge10,0.0,0
mp-27374,NaAsSe2,1.2044000000000001,0
mp-1029550,Ca2CrN3,0.0,0
mp-999357,NbN,0.0,0
mp-561226,BTe3(OF5)3,3.7899,0
mp-997587,La7ScAl8O24,2.5344999999999995,0
mp-1047850,BaMgVF7,2.4216,0
mp-1522,FeS2,0.8770000000000007,0
mp-771384,Lu2Co2O7,0.0,0
mp-779362,Li2MnFe(BO3)2,3.1151,0
mp-696842,NaH3(SeO3)2,4.2406,0
mp-753785,NbOF3,3.2629,0
mp-977371,PW4Cl11,0.5707,0
mp-11313,ZrCd3,0.0,0
mp-13150,BN,4.3877,0
mp-1046495,Sr2AlCu2BiO7,0.009599999999999831,0
mp-2061,ThTl3,0.0,0
mp-675758,Sr2LaF7,4.8865,0
mp-849422,Li4Cr3Co3(WO8)2,0.0,0
mp-9092,Er2S3,1.1634999999999995,0
mp-30421,Sr3Au2,0.0,0
mp-27649,BaU2O7,2.0533,0
mp-706430,H3NO4,3.9184,0
mp-624929,CdInGaS4,0.0,0
mp-976349,LuH2ClO2,4.8104,0
mp-677136,LiCa3Zr3TaO12,3.9393999999999996,0
mp-542069,Cs8Ta6O19,3.4757000000000002,0
mp-10163,NaAlTe2,1.2847,0
mp-7976,RbGdO2,3.0036000000000005,0
mp-504580,VCuO3,0.6943999999999999,0
mp-540447,LiNi(PO3)3,3.9183000000000003,0
mp-976365,Nd3Au,0.0,0
mp-617632,La3AgGeS7,1.9759000000000002,0
mp-22168,Mn(InS2)2,0.9208999999999996,0
mp-1043895,CaLaCrFeO6,0.0,0
mp-6449,CdCu2SiS4,0.9802999999999997,0
mp-505464,Cs2Te13,0.4802000000000004,0
mp-1046349,Ba2AlTlFe2O7,0.0,0
mp-769540,Na3Mn2P2(CO7)2,0.0,0
mp-775217,CoSb3(PO4)6,1.6159999999999999,0
mp-22212,NaSbO3,1.2740000000000005,0
mp-1048162,Ba2AlV3O8,0.0,0
mp-639662,CrF5,1.3584,0
mp-1020625,Rb8N3O,0.0,0
mp-654129,GaAg(PSe3)2,1.4987000000000001,0
mp-998363,NiBiO3,0.0,0
mp-13227,YbMg2Cu9,0.0,0
mp-977424,Yb2ZnPb,0.0,0
mp-562137,KLiCO3,4.5408,0
mp-771389,Li2V3BiO8,0.9152999999999998,0
mp-22522,ZrCuSi,0.0,0
mp-626227,Ca(H8O5)2,3.8933,0
mp-6198,SrGa2(SiO4)2,3.8803,0
mp-735578,SrMoAsH3O8,2.9342,0
mp-672689,Hf6Co16Si7,0.0,0
mp-973773,Nd2Cd2O5,0.0,0
mp-13175,PtN,0.0,0
mp-556214,CaB4O7,5.6352,0
mp-669426,SiO2,5.6183000000000005,0
mp-24721,RbH,2.9181,0
mp-973241,Sm3Ni7B2,0.0,0
mp-770893,Li4Fe2O5,1.5990999999999997,0
mp-23237,BiF3,4.6808,0
mp-557232,KSmPdO3,0.7336,0
mp-643561,VH6(OF)3,1.6462999999999999,0
mp-976373,K3Y,0.0,0
mp-753585,Li14Fe2S9,0.0,0
mp-542328,Ce5Ga3,0.0,0
mp-1025571,WS2,1.7071,0
mp-720995,Sr2C2N3,0.0,0
mp-676934,KCaNd(PO4)2,4.7393,0
mp-772534,LaSCl,2.4524,0
mp-554988,Ag2Ge2O5,0.7531000000000001,0
mp-1267,NaC,3.3846,0
mp-972408,UBiTe,0.0,0
mp-30354,ScAg4,0.0,0
mp-557719,PbS,2.0786,0
mp-3138,Na8SnSb4,0.2682000000000002,0
mp-20380,HoMnSi,0.0,0
mp-1043303,Fe4(CuO4)3,0.0,0
mp-29392,Na2TiCl4,0.0,0
mp-626267,Ca(H8O5)2,3.8400999999999996,0
mp-15728,MgAg(PO3)3,3.3422,0
mp-775215,Li10Cr3Fe3(NiO8)2,1.6327000000000003,0
mp-772456,Li2Mn3CuO8,0.1080000000000001,0
mp-2472,SrO,3.2748,0
mp-766416,K2UH6C2SO13,1.7241,0
mp-651106,FeSb2WC8Se2(O2F3)4,2.2688,0
mp-695966,CuP3H12NO13,0.0,0
mp-12543,Dy3Pd2,0.0,0
mp-1020144,Na2Be4B4O11,4.983300000000001,0
mp-18806,Ni3(BO3)2,3.0436,0
mp-19743,LaFeGe3,0.0,0
mp-1046875,Ca(BiO2)2,1.6968,0
mp-28490,Tl3BSe3,1.226,0
mp-999539,MnO,0.0,0
mp-754586,Li8BiO6,0.0,0
mp-769778,Ca2In2O5,1.3036000000000003,0
mp-1025933,Te2Mo2W(SeS)2,0.2633000000000001,0
mp-1041773,Si2SnO6,3.2095,0
mp-976943,NaRe3,0.0,0
mp-18462,TbGa3Os,0.0,0
mp-744,HoP,0.0,0
mp-706446,CsTiH10C4O13,0.0,0
mp-686735,NaCaAlSi2O7,4.3591999999999995,0
mp-505716,PuH18C3S3(O2F)9,0.0,0
mp-559502,Ba3NaNd3(Si3O10)2,4.5793,0
mp-558269,Ce2SiS5,0.0,0
mp-21866,Dy2InAu2,0.0,0
mp-3328,Ho2Al3Si2,0.0,0
mp-556926,CuAs2S4(O2F3)4,0.7370999999999999,0
mp-559231,Se2S(NCl)2,1.6977,0
mp-1044602,ZnCuP2O7,0.24180000000000001,0
mp-1045728,AlFe4(CuO4)3,0.0,0
mp-16287,NdRh3C,0.0,0
mp-1027341,Te2MoWS2,0.0,0
mp-1046746,Mg2Nb2TeO8,1.1145,0
mp-15371,Yb15C19,0.0,0
mp-680301,K3AsO4,3.3075,0
mp-757964,LiSn2P5O16,2.2785,0
mp-569322,Te2Ir,0.0,0
mp-634755,CSO,4.4961,0
mp-5518,GaAgSe2,0.24839999999999995,0
mp-21096,CaMnSi,0.0,0
mp-704461,Ba3La7Mn(Co3O10)3,0.0,0
mp-863654,Pm2CdSi,0.0,0
mp-40161,NaHf2(PO4)3,5.0443,0
mp-985303,Ac3Th,0.0,0
mp-551741,Zn2P2O7,3.6447,0
mp-558805,Na3Nd(BO3)2,3.7653000000000003,0
mp-555514,OsOF5,0.8055000000000001,0
mp-24759,ZnH20Se2(NO7)2,3.637,0
mp-542316,Co2Mo3N,0.0,0
mp-780325,LiMnSiO4,0.0,0
mp-103,Hf,0.0,0
mp-17470,Ba3(SnAs2)2,0.7525,0
mp-1018795,Mg2Sn,0.0,0
mp-557920,Zn3(PO4)2,3.4139,0
mp-707490,K8TeP8(H5O16)2,0.592,0
mp-999377,NbC,0.0,0
mp-779737,Ho2P4O13,5.4324,0
mp-29084,Ba2GdCl7,2.4275,0
mp-764909,Li5Mn3Cr(PO4)4,0.2708000000000004,0
mp-578601,NaNbO2,0.0,0
mp-809,ThCo5,0.0,0
mp-754808,La2MgO4,2.4898,0
mp-972935,ScZnNi2,0.0,0
mp-504669,KBiF6,2.7061,0
mp-27200,B13H19,2.7668999999999997,0
mp-542459,BaGa2(GeO4)2,3.2617,0
mp-573150,Cs2GeO3,3.0623,0
mp-1028635,Te2Mo(WSe2)3,0.06459999999999999,0
mp-763216,Mn3(O2F)2,0.08700000000000019,0
mp-22405,Ni(C2N3)2,0.9374,0
mp-1008523,BC2N,1.5215999999999994,0
mp-754822,Li4Ti3Sn5O16,0.5792999999999999,0
mp-1001836,MnGa,0.0,0
mp-984240,CsCaO3,0.0,0
mp-862939,PmMgCd2,0.0,0
mp-1006328,LiCeSn,0.0,0
mp-1028767,Te6MoW3S2,0.012700000000000156,0
mp-30889,Ho2Ru2O7,0.0,0
mp-1041120,HoZnCr2O6,0.22599999999999998,0
mp-977407,Hf2ReRh,0.0,0
mp-645375,ZnBi6P2O15,2.7511,0
mp-773538,CrFe3Cu2(PO4)6,0.0,0
mp-14192,Na2UF6,0.0,0
mp-8608,K(Cu2As)2,0.0,0
mp-8874,LiSiBO4,6.4308,0
mp-28450,Li4P2O7,5.6108,0
mp-14827,Li7NbN4,3.3305,0
mp-684082,LiSb(PO3)4,4.0039,0
mp-684588,Sn3P4,0.0,0
mp-505496,RbP4N7,3.6942000000000004,0
mp-780856,Co6O7F5,0.0,0
mp-22964,PbClF,3.4652,0
mp-767137,Li3Sb17S27,0.5084,0
mp-11734,Sr2MgReO6,0.0,0
mp-973053,ScH3,0.0,0
mp-14704,Li6Y(BO3)3,4.7398,0
mp-763057,Mn(CoO3)2,1.2121,0
mp-1027305,Te4Mo3W(SeS)2,0.0,0
mp-974545,ReSn3,0.0,0
mp-13282,Sm(ErSe2)3,0.7752999999999997,0
mp-555513,CS2NF5,2.9184,0
mp-1009485,CrN,0.0,0
mp-780053,Na2Ge2O5,2.9825,0
mp-557992,InTeClO3,3.0723,0
mp-13326,PrLuSe3,0.49319999999999986,0
mp-766350,LiSiBiO4,3.0152000000000005,0
mp-675798,NaHoF4,6.8743,0
mp-555567,S5N2ClO6,1.3105000000000002,0
mp-996954,CuPtO2,0.0,0
mp-1026969,Te2MoWS2,0.0,0
mp-756557,LiY4Ti4(S2O5)2,0.0,0
mp-974368,Rh3Pb,0.0,0
mp-1020711,Rb2Si(S2O7)3,5.2546,0
mp-569094,P4Se3,2.1677,0
mp-531265,Ca3(BN2)2,2.4178,0
mp-542840,In2Si2Pb2O9,3.3467000000000002,0
mp-5219,Ho(SiOs)2,0.0,0
mp-639874,Ta2Al,0.0,0
mp-1029125,Te2MoW3(SeS2)2,0.0,0
mp-11860,HoMnGa,0.0,0
mp-861893,Li2LaPb,0.0,0
mp-23544,Bi4Br2O5,2.5121,0
mp-556165,LiB(CO2)4,3.3042000000000002,0
mp-755370,BaNb3NO7,1.2927,0
mp-757836,BeH2SeO4,4.753,0
mp-760386,CsClO3,5.4534,0
mp-1771,NO2,2.6914,0
mp-1045822,Ti5ZnO7,0.0,0
mp-30342,HoInAg2,0.0,0
mp-774561,Zr2(PO4)3,0.0,0
mp-1025598,Te4Mo(WSe)2,0.3238000000000003,0
mp-13688,Ge2Mo,0.0,0
mp-1013706,Sr3BiSb,0.0,0
mp-605486,ScTl(MoO4)2,3.6563000000000003,0
mp-1007778,TlN,0.0,0
mp-570987,Ce3Al,0.0,0
mp-758059,Ba7Pb17O24,2.1197000000000004,0
mp-861490,Li5Mn2Co3O10,0.8184999999999993,0
mp-22777,NaN3,0.0,0
mp-3097,Tb(SiRh)2,0.0,0
mp-1020059,LiGe2N3,2.7630000000000003,0
mp-28747,Y3RuI3,0.0,0
mp-754004,TmHO2,4.5627,0
mp-861498,Pr2HgPb,0.0,0
mp-17694,Ca5Al6O14,4.226,0
mp-865744,YbCdPd2,0.0,0
mp-556135,GdSI,1.5047000000000001,0
mp-652479,LiZnPO4,4.1895999999999995,0
mp-27742,K2CdO2,1.3576,0
mp-1016833,CaRhO3,0.0,0
mp-677617,KMgP2H5O9,2.6875,0
mp-1018149,ScCu2,0.0,0
mp-554023,Be2BO3F,6.3561,0
mp-555764,BaNb10SiO19,0.014800000000000146,0
mp-675477,Sn4Bi2Se7,0.0,0
mp-560995,Y(IO3)3,3.4466,0
mp-6188,LuNiBC,0.0,0
mp-6257,CsNb(BO3)2,3.2991,0
mp-4426,Li4SeO5,2.4442,0
mp-29755,CaSi2O5,4.7791999999999994,0
mp-2783,Ta2Si,0.0,0
mp-866471,CaSnS3,0.0,0
mp-975666,PrBrO,4.462999999999999,0
mp-974641,K3Tl,0.0,0
mp-1042698,ZnBiMoO5,1.5412,0
mp-18835,VPO4,1.7687,0
mp-11585,La2MgGeO6,0.42329999999999934,0
mp-15179,Pr2S3,0.7774999999999999,0
mp-697367,NaP(HO2)2,5.0808,0
mp-21240,Gd(SiRh)2,0.0,0
mp-710,SmP,0.0,0
mp-22409,Hf3B2Ir5,0.0,0
mp-504567,Mn3(CuO4)2,0.0,0
mp-556393,RbBe4(BO3)3,5.1692,0
mp-938,GeTe,0.5965000000000007,0
mp-780110,LiVP2HO8,1.3988999999999998,0
mp-767772,Li3V2F9,2.2881,0
mp-1029259,Te2MoWSe2,0.2509999999999999,0
mp-975200,RbSrO3,0.0,0
mp-569337,Na4Si2Te5,1.8779000000000003,0
mp-769520,Na3Mn2P2(CO7)2,0.8269,0
mp-570708,CrAgSe2,0.0,0
mp-674982,Li19Mn5N9,0.0,0
mp-752959,Sc5Cu5O13,0.0,0
mp-18779,Na2CrO4,2.8677,0
mp-617247,Cu2BiPO6,0.0,0
mp-1014339,CrN2,0.0,0
mp-574272,Ca5Pb3,0.0,0
mp-23312,MoBr3,0.6926,0
mp-770473,CaLaI5,2.0888000000000004,0
mp-1048662,Ca(TiS2)4,0.0,0
mp-22517,EuYSi4N7,0.5528999999999993,0
mp-984350,Dy3Sb4Au3,0.5677000000000003,0
mp-764273,Na2LiMnPCO7,3.6455,0
mp-1477,BaSi2,0.7812999999999999,0
mp-9919,LiZnSb,0.4057000000000004,0
mp-30298,KAsO2,3.8449,0
mp-1018850,OsC2,0.04699999999999882,0
mp-560321,Mg2SiO4,4.4414,0
mp-9550,ScMnSi,0.0,0
mp-10394,CrCoGe,0.0,0
mp-763993,Li2TiVO4,0.0,0
mp-1018084,CrAgTe2,0.0,0
mp-7956,Na3Sb,0.39859999999999984,0
mp-754114,SrSc2O4,3.5039999999999996,0
mp-1044811,Ba2Mn2AlF11,3.7478999999999996,0
mp-29407,AlTeI7,1.8759,0
mp-672388,ThPb,0.0,0
mp-775016,MnCr(PO4)2,0.7367000000000001,0
mp-1047130,Zn2NiIrO6,0.0,0
mp-13676,TlPO4,0.7150999999999996,0
mp-755349,Cu3OF5,0.0,0
mp-24097,Mg3Si2H4O9,4.2476,0
mp-6416,Ba5Er8Zn4O21,3.3617999999999997,0
mp-559223,GdH6C4NO9,3.0599000000000003,0
mp-706612,BH5(NF2)2,6.204,0
mp-6685,Cr4FeCuS8,0.0,0
mp-35589,Na3UF7,0.0,0
mp-861542,LiFeSiO4,1.9886,0
mp-636952,LiCS(OF)3,6.5704,0
mp-27632,K2TcCl6,1.1425999999999998,0
mp-558655,Re2PbO6,0.0,0
mp-978625,Sm2MgTl,0.0,0
mp-733637,NaH8O5,3.5073,0
mp-647192,C28Cl5,1.3573000000000002,0
mp-1029153,TeMoWSe2S,0.0,0
mp-756401,TaAsO4,2.8279,0
mp-977182,NaNb3,0.0,0
mp-3849,TlFeS2,0.0,0
mp-977123,NaTiO3,0.0,0
mp-780857,Li2VOF4,1.6283,0
mp-1015814,LiMg2Al,0.0,0
mp-865908,Yb2HgPb,0.0,0
mp-549695,GdBi2ClO4,0.8529,0
mp-768877,Sn2Ge2O7,1.7482000000000002,0
mp-21436,GdCuSn,0.0,0
mp-22508,YMn12,0.0,0
mp-28127,Na2S5,1.7602000000000002,0
mp-759722,SiH8(NF3)2,6.464599999999999,0
mp-625993,Te(HO)6,1.9738,0
mp-17947,BaCu2GeS4,0.9664999999999999,0
mp-22053,FeCu2GeS4,0.0,0
mp-707249,H24C8S(NO2)2,3.7835,0
mp-774950,Li2V3CoO8,0.7871000000000001,0
mp-644311,CuPt,0.0,0
mp-16160,Sm4Au2O9,2.0219,0
mp-680133,CdI2,2.3402000000000003,0
mp-29646,HfAs2,0.0,0
mp-541646,Cs3Ru2Cl9,0.4885999999999999,0
mp-566608,SrCrF4,2.4214,0
mp-1007819,CoW,0.0,0
mp-573324,CsK2Ho(PO4)2,4.8777,0
mp-556696,Ba2YbB2ClO6,0.0,0
mp-27838,Na3Bi,0.0,0
mp-773582,LiTe(H3N)4,1.2814999999999999,0
mp-644369,BaBiO3,0.10110000000000019,0
mp-974058,LiCu3,0.0,0
mp-2493,CeN,0.0,0
mp-568365,Li6Br3N,2.2583,0
mp-867372,ThCdAg2,0.0,0
mp-30485,Ca3Zn,0.0,0
mp-3827,KFeS2,0.0,0
mp-1019255,SmTlCd,0.0,0
mp-625171,H7ClO3,4.2299,0
mp-14092,AlAgTe2,1.0465999999999998,0
mp-569512,SbICl8,1.5838,0
mp-541569,Sr2Li3TaN4,2.1584,0
mp-973534,FeRe,0.0,0
mp-21598,SiNi2As,0.0,0
mp-1044224,Ca(WO2)4,1.3843999999999999,0
mp-4404,Sr(AsRu)2,0.0,0
mp-862493,LiEr2Al,0.0,0
mp-722900,CaH3NO5,3.4120999999999997,0
mp-7534,K2Cd2O3,0.6527,0
mp-863423,SrGa12O19,1.8584,0
mp-780403,NaCu3O2,1.2689,0
mp-18463,RbZnPO4,3.7026999999999997,0
mp-780178,Li8TiMn3(PO4)6,1.5922,0
mp-7899,BaCdO2,0.9776000000000002,0
mp-570884,TeI4,1.7639000000000002,0
mp-698470,LiAlH16(CN)4,3.6569,0
mp-30156,LiMgN,2.2064999999999997,0
mp-30335,Al23V4,0.0,0
mp-770023,Ag2Hg3,0.0,0
mp-5081,SmCuS2,1.1156000000000006,0
mp-23280,AsCl3,3.9873,0
mp-4001,BaTaS3,0.0,0
mp-1042344,Ba2AlSn3O8,0.0,0
mp-554421,KCu2AsS3,1.1635999999999997,0
mp-18460,K2Si6GeO15,4.3731,0
mp-559129,Li3Er(NO3)6,3.1147,0
mp-38220,RbNO3,3.0132,0
mp-774406,Cr3Ni(PO4)6,0.0,0
mp-1047928,Mn3P3O13,0.0,0
mp-1023925,WS2,1.6944,0
mp-636316,EuIn2,0.0,0
mp-778222,Na3VO3,0.5888,0
mp-550722,Ba2Tl2CuO6,0.0,0
mp-1830,NpTe,0.0,0
mp-721943,CuSiH12(OF)6,0.0,0
mp-1046498,Ba2Mg2Mn3Tl2O10,0.0,0
mp-558056,AlPO4,5.4806,0
mp-40519,Na3Sr7Ta3Ti7O30,1.7944000000000004,0
mp-1030534,Te2MoWSeS,0.005199999999999871,0
mp-7615,Rb3TlF6,3.1498999999999997,0
mp-849476,Li17Ag12F29,1.4135,0
mp-1048915,CaMn2(PO4)2,3.2601,0
mp-984712,Cr3Se,0.0,0
mp-767622,Li2VOF3,1.7415000000000003,0
mp-22009,PbSe,1.6025,0
mp-542623,Tl2SnS3,0.9423999999999997,0
mp-570194,Ca(BH4)2,5.601,0
mp-448,CoN,0.0,0
mp-21657,Tl5Se3,0.0,0
mp-551243,BaBiIO2,2.947,0
mp-864780,PaAlAu2,0.0,0
mp-18332,Lu2ZnS4,2.3855999999999997,0
mp-1044788,Ba2AlCr2F11,3.1102000000000003,0
mp-850742,LiV3OF11,0.0,0
mp-27439,TmIO,3.3943,0
mp-8267,KPS3,1.7034999999999998,0
mp-557756,Li4Zn(PO4)2,4.676,0
mp-752724,Ho2TiO5,3.0358,0
mp-1047150,ZnCu3(P2O7)2,0.1867000000000001,0
mp-21701,UFe5Sn,0.0,0
mp-1027303,TeMoWS3,0.0,0
mp-775631,Li4Fe3Cu3(SnO8)2,0.0,0
mp-553977,K4NpS2ClO10,0.1378999999999997,0
mp-12940,HoIn5Rh,0.0,0
mp-600059,SiO2,5.7102,0
mp-24291,ThH2,0.0,0
mp-8789,Ca4As2O,1.2134999999999998,0
mp-10130,U2(Ni7B2)3,0.0,0
mp-4034,LaTe2Se,0.0,0
mp-9413,Ca2TiSiO6,2.3633999999999995,0
mp-22865,CsCl,4.9881,0
mp-19434,Pr2NiO4,1.6753,0
mp-29166,Li3Ag2Ge3,0.0,0
mp-6059,Cs2KYF6,6.464,0
mp-975586,Pr3Y,0.0,0
mp-23945,KLi2(HO)3,2.796,0
mp-1145,TiB2,0.0,0
mp-10245,Hf3(CuSi)4,0.0,0
mp-759870,BiOF,2.9045999999999994,0
mp-979289,TaW3,0.0,0
mp-999394,Nb3Ni,0.0,0
mp-652044,Ce10Se19,0.0,0
mp-4769,SiP2O7,5.8048,0
mp-629082,Ba3MoN4,1.2879,0
mp-754613,K2ErPCO7,4.4968,0
mp-7752,Sr3SbN,0.2574000000000001,0
mp-976765,Na3Au,0.0,0
mp-3939,Sm(SiNi)2,0.0,0
mp-27622,Na2PbO2,2.4071,0
mp-698401,CuH11C5NO6,0.7047,0
mp-768827,BaSrI4,3.1709999999999994,0
mp-29163,Ag2TeS3,1.2999,0
mp-1030338,Te4Mo3W(SeS)2,0.0,0
mp-1035479,RbLiMg14O15,1.2721,0
mp-1016231,CsMg3,0.0,0
mp-7493,CaSb2,0.0,0
mp-26407,Li2SnP2O7,4.118600000000001,0
mp-1019269,Sr2H3I,2.0576000000000003,0
mp-569331,Li(Sn3Pd)2,0.0,0
mp-769868,Li3BiH8O7,4.0181,0
mp-19891,Pu2C3,0.0,0
mp-569249,Ta3Au,0.0,0
mp-11597,NdBPt3,0.0,0
mp-972170,TbY3,0.0,0
mp-866274,CeCdHg2,0.0,0
mp-557529,Na5P3O10,4.5621,0
mp-757209,LiCuPO4,0.16220000000000012,0
mp-754502,SmYO2,0.0,0
mp-4105,Ho(CuSi)2,0.0,0
mp-695476,NaSr8LaTi10O30,1.8021999999999996,0
mp-1047325,Ti2ZnO4,0.0,0
mp-27819,Ag3O,0.0,0
mp-581488,SbTe7SXeCl(OF4)9,1.4909,0