mp_id,formula,band_gap,fidelity
mp-746820,NiH6(SO6)2,0.0,0
mp-864627,Nd2Ga12Ni,0.0,0
mp-1018633,LaBPt3,0.0,0
mp-754661,INO3,1.6497000000000002,0
mp-974754,NdPa3,0.0,0
mp-28790,Al13(TlS7)3,3.1191,0
mp-867308,InCuPd2,0.0,0
mp-768505,LuGaO3,2.8827999999999996,0
mp-570034,ErB4,0.0,0
mp-34121,LiSbS2,0.0,0
mp-27897,Ba(NO2)2,2.3587000000000002,0
mp-776057,TiCr2Ni3(PO4)6,0.0,0
mp-2051,LaCu2,0.0,0
mp-694547,MnPO4,0.0,0
mp-1331,YCd2,0.0,0
mp-763007,Mn2OF3,0.04420000000000002,0
mp-17679,RbNb(PO4)2,3.0886,0
mp-35909,AgBiI4,0.9912000000000001,0
mp-552,Th3Sb4,0.03849999999999998,0
mp-616544,RbCr3S5,0.2992999999999997,0
mp-6250,BaTm2ZnO5,3.3223,0
mp-696804,RbHS,3.0784000000000002,0
mp-1474,Re3P4,0.0,0
mp-11230,Y2Al,0.0,0
mp-755137,BiO2,0.0,0
mp-752682,Ba2Sr7I18,3.419,0
mp-562607,AlPO4,0.0,0
mp-616327,In3Te3I,1.1004,0
mp-505333,Hf5CoAs3,0.0,0
mp-28763,CaAsPd,0.16080000000000005,0
mp-33940,Mg2PtO4,1.1505,0
mp-1042019,NiO2,0.0,0
mp-861868,KNaLaTaO5,3.7157000000000004,0
mp-23558,Ag2BiO3,0.3843000000000001,0
mp-770686,Li3MnAl2O6,2.1234,0
mp-32760,LiP5,0.5134999999999996,0
mp-19435,CoMoO4,1.7058999999999997,0
mp-774302,TiMn3O8,1.7216,0
mp-759324,Yb(Bi3O5)4,0.0,0
mp-758134,Li2AgF5,0.1600999999999999,0
mp-562550,AgCSN,2.2796999999999996,0
mp-568906,KCoAu3(CN)6,0.0,0
mp-555840,K2PO4,3.2014,0
mp-1087,SrS,2.5006000000000004,0
mp-667281,SNClO,3.4302,0
mp-3526,ErInPt,0.0,0
mp-720245,CsKNaLi13(SiO4)4,3.9246000000000003,0
mp-568862,OsN2,0.0,0
mp-1041848,MgV2O4,1.3261000000000003,0
mp-11276,BeRh,0.0,0
mp-1356,Sb2Pd,0.0,0
mp-9510,Tl2PAuS4,1.2929000000000004,0
mp-673145,LiCu4(PO4)3,0.0,0
mp-5639,Mg2SiO4,4.7521,0
mp-604120,PH6NO4,4.9267,0
mp-770874,Na6Co2P(CO4)4,0.0,0
mp-14134,Lu3Ga5O12,2.3544,0
mp-23622,Sm3Si2ClO8,4.4572,0
mp-569989,Nb2C,0.0,0
mp-774371,Li4Mn3F10,3.4539,0
mp-1030195,Te3MoWS,0.0045999999999999375,0
mp-10203,Ta5Si3,0.0,0
mp-12906,Sr3CrN3,0.0,0
mp-554420,Y2SiO5,4.7341999999999995,0
mp-864957,MnSbRu2,0.0,0
mp-1042046,Ca(MoO2)2,2.2257999999999996,0
mp-11038,Zr6Al2Fe,0.0,0
mp-34292,Tl9SbTe6,0.6131000000000002,0
mp-560863,ThSe2O7,3.7518,0
mp-606393,NbBr3O,1.9611,0
mp-622171,VSb2O5,2.5365,0
mp-14485,LaTa7O19,3.1165999999999996,0
mp-1008568,ZrTi2,0.0,0
mp-7754,Si2Ru,0.0,0
mp-1029718,CsC2N3,4.0656,0
mp-505151,Ca3CuIrO6,0.0,0
mp-1044569,Ba2YSn2F11,3.2299999999999995,0
mp-27256,Sb2(S2O7)3,4.1996,0
mp-866209,Pm2SiNi,0.0,0
mp-22485,TbCuSb2,0.0,0
mp-18822,Mn2PO4F,2.7959,0
mp-1025732,Te4Mo(WSe)2,0.34189999999999987,0
mp-555759,Re2(HgO2)5,1.2845,0
mp-12829,LiCaGaF6,6.4003,0
mp-1045503,Ca(FeS2)2,0.0,0
mp-387,CeSb,0.0,0
mp-865737,Li2InSn,0.0,0
mp-541483,Rb3Sc(HO)6,3.5968,0
mp-779980,Hf2N2O,2.0281000000000002,0
mp-773667,Ge2N2O,2.3691000000000004,0
mp-4604,Li7VN4,3.011,0
mp-3333,Eu(NiGe)2,0.0,0
mp-759473,Na5Ti3O8,0.0,0
mp-996985,HAuO2,1.2747,0
mp-697263,LiAsH2OF6,4.1762,0
mp-621924,BaCdGaF7,4.4668,0
mp-13311,SrAlGe,0.0,0
mp-780196,LiMnSiO4,0.4094,0
mp-1028999,Te2Mo(WS2)3,0.0,0
mp-763588,LiFe(CO3)2,2.1271,0
mp-850378,H11S2N3O7,4.922,0
mp-11317,CeFe5,0.0,0
mp-754678,BaTaO3,0.0,0
mp-755389,CaEuO2,0.0,0
mp-530316,Dy2TiO5,2.5157000000000003,0
mp-23295,RbCl,4.8393,0
mp-981548,YErTl2,0.0,0
mp-755894,Li2O,5.2421999999999995,0
mp-626260,Sr(H8O5)2,3.7903000000000002,0
mp-776032,Ba2YI7,2.9006000000000003,0
mp-20363,LiGa2Pt,0.0,0
mp-6102,NdNi2B2C,0.0,0
mp-686764,Ca5FePb3,0.0,0
mp-768952,Bi2B2O7,0.0,0
mp-557282,Rb2Ce(NO3)6,1.491,0
mp-4657,Li5GaO4,3.763,0
mp-27717,As2S2F3,2.3662,0
mp-7644,LuAsO4,3.5333000000000006,0
mp-9596,La(BIr)4,0.0,0
mp-690978,La5Ti6S3(ClO5)3,1.7618999999999998,0
mp-720433,Be2As(HO)9,4.205299999999999,0
mp-8470,NaPrO2,3.1969000000000003,0
mp-16732,YAs,0.0,0
mp-11548,YbTlPd,0.0,0
mp-18547,NaGdGeO4,3.2576,0
mp-775907,Y2O3,3.5727,0
mp-637206,AlBiSeCl4,2.5424,0
mp-998883,Ge,0.0,0
mp-2748,CeAs,0.0,0
mp-11250,Mg2Au,0.0,0
mp-764621,Li3Fe8(BO3)8,1.496,0
mp-540771,BaZrS3,0.9971000000000001,0
mp-545756,ZnSO4,4.2625,0
mp-693753,BaNa5Ca7P6(O8F)3,4.816800000000001,0
mp-27235,H5N2F,5.4604,0
mp-17666,Nd3OsO7,0.0,0
mp-581875,Ta3Bi7O18,2.3299000000000003,0
mp-766324,BaCaI4,3.1399999999999997,0
mp-677803,In11Cu9Se20,0.0,0
mp-510417,WO3,1.7026999999999999,0
mp-9934,BaMgSi,0.0,0
mp-771431,Cr3Sn3(SbO8)2,0.6717,0
mp-622980,MnTePd,0.0,0
mp-559602,AgSb(S8F3)2,2.7422,0
mp-776491,Lu2P4O13,5.4581,0
mp-771240,La2P4O13,4.92,0
mp-583070,Re2Te5,0.6052999999999997,0
mp-19112,FeSO4,4.1086,0
mp-8221,ZrAsRu,0.0,0
mp-607230,Ca3Ga3Rh2,0.0,0
mp-16904,Ba2CdTe3,1.4020000000000001,0
mp-777144,Ti3Cu2Te(PO4)6,0.5432999999999999,0
mp-705743,Ta2MnO6,2.1806,0
mp-554371,CaSiBHO5,5.3854,0
mp-859133,LiH2N3O,3.6515,0
mp-764452,Li3Co2(SiO4)2,0.23029999999999995,0
mp-560740,La2SnS3O2,1.6742,0
mp-977564,MgScHg2,0.0,0
mp-775155,Li4FeOF5,2.9748,0
mp-686585,K6Al11Si13Ag5O48,1.5983,0
mp-1043224,CaCr4(CuO4)3,0.0,0
mp-2391,YbPd3,0.0,0
mp-1046926,MgTi3(P2O7)2,0.07580000000000009,0
mp-863722,Pm2IrRh,0.0,0
mp-21652,Sr8CaCu4(ReO8)3,0.0,0
mp-1030155,Te8Mo3W,0.5529999999999999,0
mp-569661,YbInCu4,0.0,0
mp-999469,ZnN,0.0,0
mp-770799,Li5NbO5,3.9186,0
mp-570360,RbNd2I5,0.0,0
mp-16487,Ce(MnAl2)4,0.0,0
mp-675164,La12Cu10O31,0.0,0
mp-760467,ThU8O18,0.0,0
mp-559584,LiCaNiF6,2.3521,0
mp-756705,YAlO3,4.0582,0
mp-754060,Li7BiO6,1.8489,0
mp-1003403,Mn8HO16,0.28280000000000016,0
mp-706231,NaSr9Fe5(MoO6)5,0.5036,0
mp-1018641,Tm3AlN,0.0,0
mp-12546,TiCu3,0.0,0
mp-972055,Rb3Yb,0.0,0
mp-561099,Ba4Os6ClO18,0.0,0
mp-27554,Ag3AuS2,0.1802999999999999,0
mp-27356,AsO2,3.3566000000000003,0
mp-570930,Bi2Pb2Se5,0.4275000000000002,0
mp-722980,Hg4HN3O10,2.0558,0
mp-721650,CaH14I10O7,0.6776000000000001,0
mp-10681,B2Au,0.0,0
mp-775263,Li6CoNi9O20,0.0,0
mp-769046,Si2Sn2O7,2.5534,0
mp-12240,Na2LiBe2F7,6.9483,0
mp-1042984,CaSb2O5,0.0,0
mp-631520,TlBTe2,0.0,0
mp-579560,Cs3Sb2Br9,1.9837,0
mp-19800,Fe11Si5,0.0,0
mp-4614,Tb(SiAg)2,0.0,0
mp-636525,Zr7Ni10,0.0,0
mp-600067,SiO2,5.74,0
mp-17229,RbBe3ZnF9,6.2801,0
mp-29075,Ga3Bi5Cl12,1.8012000000000001,0
mp-19121,TbVO4,2.9828,0
mp-762880,LiCoSiO4,1.4218000000000002,0
mp-863430,Zn3In2O6,0.6580000000000004,0
mp-30491,MgCd3,0.0,0
mp-683995,Re3C14NO16,0.11839999999999995,0
mp-87,Be,0.0,0
mp-5924,MgSiO3,5.7928,0
mp-24831,DyH4I3O11,3.7184999999999997,0
mp-707772,TeP2H16N2O13,3.7525,0
mp-17720,Sr5Sn3,0.0,0
mp-557585,Lu(PO3)3,5.6749,0
mp-769637,Li5Ti6FeO16,2.6955,0
mp-1047375,Mg(BiO2)2,0.9699999999999998,0
mp-764727,Li8NiO5F,2.0822,0
mp-638690,Li2Y5In9,0.0,0
mp-669376,KU2F9,0.2237,0
mp-427,FeAs,0.0,0
mp-864876,TbInRh2,0.0,0
mp-29848,IF3,2.1132,0
mp-772958,Er2P4O13,5.4556,0
mp-18074,NdF3,5.450200000000001,0
mp-863,PuCo2,0.0,0
mp-770968,Na3NiPCO7,4.0068,0
mp-22064,Cr2As,0.0,0
mp-673092,Li4Sn(PO3)6,4.4967,0
mp-1665,YbFe2,0.0,0
mp-866150,LiSm2Os,0.0,0
mp-1029782,Ca3W3N5,0.0,0
mp-866142,TiGaIr2,0.0,0
mp-760664,LiCu(PO3)2,0.8632,0
mp-3477,MgAgAs,0.0,0
mp-510188,HfGa,0.0,0
mp-558862,NaGe4(PO4)3,4.3844,0
mp-12944,HoAsO4,3.609,0
mp-31451,ZrCoBi,0.9771999999999998,0
mp-851257,V2OF5,1.5619,0
mp-1047908,BaVZnF7,2.3922,0
mp-768537,Cs3TlO3,1.5384,0
mp-28038,NbTeBr3,0.5913000000000002,0
mp-626161,Al5HO8,4.7661,0
mp-1029948,Te2MoW3(SeS2)2,0.0,0
mp-5688,Er(FeSi)2,0.0,0
mp-12054,Cr2B3,0.0,0
mp-13590,LiB(CN)4,6.3482,0
mp-17702,Yb2SiO5,0.0,0
mp-770372,CeHfO4,1.8098999999999998,0
mp-773070,KNb2O5,0.0,0
mp-771196,Li8Mn12Ni4O31,0.8603000000000001,0
mp-8982,CaSiPt,0.0,0
mp-675671,Sc(VN)9,0.0,0
mp-1028517,Te2MoW3(Se2S)2,0.0,0
mp-867149,Sr2CdSn,0.0,0
mp-634751,YbH2,0.0020000000000000018,0
mp-978520,SmDyRu2,0.0,0
mp-764036,Li3Mn3CrO8,0.4144000000000001,0
mp-676377,Ti2CuS4,0.0,0
mp-7131,PrTe,0.0,0
mp-27634,TiBr4,2.7818,0
mp-763193,Li2VO2F,0.7241,0
mp-29420,Hf(Se2Cl3)2,1.3131,0
mp-31110,Sm3GaO6,3.6243,0
mp-973267,KTcO3,0.0,0
mp-554033,Na6Si8O19,4.5317,0
mp-979272,TePdO3,0.0,0
mp-10087,CeScSi,0.0,0
mp-6211,RbLiSO4,5.2348,0
mp-460,PrZn,0.0,0
mp-9886,La(PRu)2,0.0,0
mp-555731,SrGeO3,3.0028,0
mp-17488,Tl2Fe3S4,0.0,0
mp-1027375,Te2MoWS2,0.0,0
mp-27616,ErSCl,2.9329,0
mp-571621,Ba3Na2(CN2)4,3.3947000000000003,0
mp-2195,LuMg,0.0,0
mp-973874,LiLa2Al,0.0,0
mp-695894,NdH12(NO5)3,3.2416,0
mp-570838,CdHg4(AsI2)2,0.4599000000000001,0
mp-769549,LiZnCr3(SO4)6,2.2921,0
mp-696189,TlH6(NO4)3,1.8483,0
mp-571537,ZrCl2,0.0,0
mp-766031,NaMgH4SO6F,5.0653999999999995,0
mp-1029101,Te4MoW3Se4,0.13239999999999963,0
mp-16687,Ti5Sb2Rh,0.0,0
mp-971922,DyYAl2,0.0,0
mp-974463,LaAg2Sn,0.0,0
mp-773067,Er3TaO7,3.5103000000000004,0
mp-22420,CuTeO4,0.0,0
mp-776970,Li5SbS4,1.1939000000000002,0
mp-554335,K2CuH12(SeO7)2,0.5889,0
mp-2187,TiSb,0.0,0
mp-674537,Ba2Bi6O11,1.8359,0
mp-770516,Tb2(WO4)3,4.7329,0
mp-36864,Li2TiO3,2.4033999999999995,0
mp-28128,SCl2,2.0564999999999998,0
mp-10093,Sr2YbNbO6,0.0,0
mp-540223,Li2MnP2O7,4.2547999999999995,0
mp-570615,BaThBr6,2.1637000000000004,0
mp-29881,Ca3SiBr2,0.0,0
mp-1048243,VZnP2O7,1.9876999999999998,0
mp-6233,NaSr3RuO6,0.49650000000000016,0
mp-776806,Li4V3Fe3(SnO8)2,0.9881999999999995,0
mp-17562,Sr3Sc(BO3)3,4.6354999999999995,0
mp-635,ScRh3,0.0,0
mp-753183,CaH4SO6,5.346,0
mp-765860,Fe2CoO4,1.2323,0
mp-780362,La(ClO4)3,4.4896,0
mp-1043550,MgSi4WO10,2.2169999999999996,0
mp-779001,Sr4Hf3O10,4.0727,0
mp-556523,LaPb6ClO7,2.1393000000000004,0
mp-972640,SmDyZn2,0.0,0
mp-20890,Eu(FeAs)2,0.0,0
mp-12005,Tm2Al3Si2,0.0,0
mp-978829,Sm3Hf,0.0,0
mp-573888,Ba2ScCl7,3.6349,0
mp-676389,Yb2Zr8O19,0.0,0
mp-3927,CaAsAu,0.0,0
mp-28068,LiDy2Cl5,0.1485000000000003,0
mp-677073,K2I2O3,0.6576,0
mp-780283,Li4V3OF11,1.8082999999999998,0
mp-571442,YI3,3.0417,0
mp-4174,HoNiSb,0.29329999999999945,0
mp-109,Si,0.0,0
mp-555506,ZrCrF6,0.0,0
mp-614006,B2O,0.0,0
mp-11840,BaAg,0.0,0
mp-758007,Ba2CaP4(H3O8)2,5.4657,0
mp-850340,Fe4O3F5,0.4542999999999997,0
mp-1043122,MgCu3(MoO3)4,0.8121999999999998,0
mp-1043203,CaCo(GeO3)2,1.935,0
mp-735535,NiPH6NO5,4.0452,0
mp-630976,In3Ir,0.0,0
mp-631343,LaRe2W,0.0,0
mp-972510,SmTmRh2,0.0,0
mp-23421,LiYb2Cl5,5.4787,0
mp-637377,Ti2In5,0.0,0
mp-1017507,TmAu,0.0,0
mp-27887,Ba3(Si2P3)2,0.4059999999999997,0
mp-865094,HfNbTc2,0.0,0
mp-238,MnPd,0.0,0
mp-10033,NbS2,0.0,0
mp-773325,Li2V3O8,1.6301999999999999,0
mp-19940,VAs,0.0,0
mp-755375,Lu2Pb2O7,0.8772000000000002,0
mp-1787,NdMg3,0.0,0
mp-753581,LaUO4,0.0,0
mp-23416,Li2ZnCl4,4.6751000000000005,0
mp-1023940,MoSe2,1.4247999999999998,0
mp-1046922,BaTi4ZnO8,0.0,0
mp-560790,Cs2NaBiF6,5.021000000000001,0
mp-756799,Ti2Nb2(CuO4)3,0.0,0
mp-554495,CaZr(PO4)2,4.330299999999999,0
mp-625583,H7BrO3,3.7348999999999997,0
mp-862898,PmCdPd2,0.0,0
mp-582828,La3Ge3Cl2,0.0,0
mp-570130,AlH3,3.1866,0
mp-1019317,TcB2,0.0,0
mp-1044887,Mg(SbO2)2,1.7496,0
mp-31090,Er2Pd2Pb,0.0,0
mp-569082,Sm(Sb3Os)4,0.0,0
mp-1031,GdCd,0.0,0
mp-1119,Nd2Te5,0.0,0
mp-11224,Sr8Al7,0.0,0
mp-542443,TlCr3S5,0.0,0
mp-571046,Sr5(GeN3)2,1.3525,0
mp-22787,Fe2Si,0.0,0
mp-3569,Nd(Sb3Os)4,0.0,0
mp-1018083,CrCdTe2,0.0,0
mp-983230,Ga3B,0.0,0
mp-973354,SbPt3,0.0,0
mp-628637,Cu3BiSe2BrO8,0.0,0
mp-1048224,Ba2AlNi3O8,0.0,0
mp-542785,MgH6(CO3)2,4.8736,0
mp-8957,Na5TaO5,2.538,0
mp-567900,Lu2Fe14C,0.0,0
mp-865525,YCdHg2,0.0,0
mp-27553,Ta2SnO7,1.4837999999999996,0
mp-23586,Hg6S4Br3Cl,1.5348000000000002,0
mp-631377,Re2PtRh,0.0,0
mp-638685,CsEuBr3,0.9373999999999998,0
mp-9472,LiAg2Ge,0.0,0
mp-766021,KH(IO3)2,3.508,0
mp-975912,Mo3H,0.0,0
mp-865440,U6Co12Ge4C,0.0,0
mp-36641,Cd(Ga3Te5)2,0.6335999999999999,0
mp-507,SiNi2,0.0,0
mp-557552,Sr2CuF6,1.068,0
mp-8388,K2CuF4,0.378,0
mp-18562,Na2Si2Se5,2.4355,0
mp-975795,PrTm3,0.0,0
mp-976267,Si12HN8,0.06229999999999958,0
mp-4195,Tm(NiGe)2,0.0,0
mp-21249,YMnSi,0.0,0
mp-23334,Bi2TeO5,2.4243,0
mp-863656,PmH,0.0,0
mp-1041539,Ti2ZnO4,0.0,0
mp-7295,RbCr5S8,0.29110000000000014,0
mp-27304,K2MnCl6,1.0996000000000001,0
mp-3435,Nd3Cu3Sb4,0.19750000000000068,0
mp-29696,K4Sb2O3,1.2427,0
mp-989192,SnClF,2.549,0
mp-976727,PrBiO3,0.0,0
mp-18898,Sr(NiO2)4,0.37180000000000035,0
mp-20489,SrPbO3,0.7933000000000003,0
mp-977181,NaMo3,0.0,0
mp-570784,Hf2Al3C4,0.0,0
mp-30169,Ba4Ni3Ge20,0.0,0
mp-557747,K2SrP2O7,4.7677,0
mp-1029932,LiVN2,1.2871000000000001,0
mp-1016886,MgVO3,0.0,0
mp-20812,InN,0.0,0
mp-752656,BaLa2O4,3.1295,0
mp-7462,Hg2SeO4,1.4228,0
mp-583052,LuCuPbSe3,1.0381,0
mp-13936,Sr2GdReO6,0.0,0
mp-761990,LiNiPO4,2.5709,0
mp-24822,Na5Al3H14,2.5843000000000003,0
mp-2848,Pu5Ir3,0.0,0
mp-29882,CsPdCl3,1.4655,0
mp-554615,KEr(PO3)4,5.373399999999999,0
mp-697108,K3HRhC5N5O,3.8355999999999995,0
mp-34489,LiInSe2,0.39419999999999966,0
mp-673073,LiSbP2O7,4.0558,0
mp-770218,ZnIn2O4,0.6364999999999998,0
mp-38222,NaCN,5.2876,0
mp-779413,BaP4O11,5.1476999999999995,0
mp-1046528,Zn4Co5(TeO6)3,0.8693,0
mp-753314,Eu2SeO2,0.0,0
mp-1043165,CaNi(GeO3)2,2.8164000000000002,0
mp-11051,NaSn,0.34289999999999976,0
mp-976064,Ho6CoTe2,0.0,0
mp-1020671,Y(NO3)3,3.2704000000000004,0
mp-556084,KClO3,5.5613,0
mp-650,Be5Pd,0.0,0
mp-572456,YbGeBiO5,0.0,0
mp-619501,U2Te3,0.0,0
mp-561081,CuH10C2(NO)8,0.8346000000000001,0
mp-22636,TaNiGe,0.0,0
mp-559634,Ni3(BiS)2,0.0,0
mp-21337,U2SnPd2,0.0,0
mp-783907,LiMnP2HO7,4.0445,0
mp-1046942,Nb2MoO8,1.7241,0
mp-779904,Ni(IO3)2,2.8945000000000003,0
mp-27517,Rb2CoI4,0.5542,0
mp-1040991,CaCu2(BiO4)2,0.0,0
mp-983585,Al3Zn,0.0,0
mp-849604,Na4CrO3,0.0,0
mp-567352,Ga(SbBr)4,2.0068,0
mp-12360,AgSbTe2,0.0,0
mp-866205,TmSbPd2,0.0,0
mp-7169,TmPPt,0.0,0
mp-1048868,MgMn2O4,0.0,0
mp-1013953,LiCo2P2O9,0.047800000000000065,0
mp-684454,Li3Bi3P8O29,0.3196,0
mp-570514,Cd2Fe(CN)6,2.609,0
mp-676284,YAgSe2,0.7142,0
mp-672341,UF6,2.7449000000000003,0
mp-706652,HOs3C10ClO10,2.4933,0
mp-753195,Li2WS4,1.9870999999999999,0
mp-23054,NaBiO3,1.0879,0
mp-3988,BaCu3O4,0.0,0
mp-556888,KSbF6,4.912599999999999,0
mp-1027580,MoSeS,0.6547000000000001,0
mp-29055,KSb2,0.21119999999999983,0
mp-16234,CsAg3Se2,0.19390000000000018,0
mp-972514,SmTa3,0.0,0
mp-34293,CsTaN2,2.1494999999999997,0
mp-541093,Nb2Hg3S(O2F5)2,2.3509,0
mp-554819,MgP4(Cl5O3)2,3.5985,0
mp-558891,SiO2,5.6471,0
mp-973841,LiHo2Al,0.0,0
mp-29901,Rb2Cd3Te4,1.4415,0
mp-762271,Li2V3O6,0.4040999999999997,0
mp-505223,Ba2Tb2Ti2Cu2O11,0.0,0
mp-4906,Te2SO7,3.2845000000000004,0
mp-1827,SrGa4,0.0,0
mp-861738,CaMgPb,0.0,0
mp-22979,GaBiO3,1.2258999999999993,0
mp-27805,Ba3SiS5,2.8127,0
mp-559273,SiO2,5.6598,0
mp-567241,Pr3(AgSn)4,0.0,0
mp-15671,Re3B,0.0,0
mp-1043368,VZn(GeO3)2,0.008100000000000218,0
mp-1013710,Ba3BiN,0.0,0
mp-7290,Er3GaS6,2.1052,0
mp-601820,Fe3Co,0.0,0
mp-998732,TlInCl3,0.0,0
mp-764460,Na5Fe11O16,0.8628,0
mp-752514,BaSrI4,3.6361999999999997,0
mp-775224,NbV3(PO4)6,0.9933000000000001,0
mp-755941,Sm3TaO7,3.3894,0
mp-540644,Sn4SI6,1.2644999999999995,0
mp-9794,Rb2GeSe3,1.4778,0
mp-22883,PbI2,2.4224,0
mp-1041142,CaV2O4,1.2230000000000003,0
mp-23375,PNCl2,4.1175,0
mp-625928,HI3O8,2.4683000000000006,0
mp-19372,WO2,1.3489000000000004,0
mp-782001,Li8La4TiNb7O28,0.0,0
mp-11240,DyAu,0.0,0
mp-5627,Pr(FeSi)2,0.0,0
mp-773090,Nb6CdO16,1.5731,0
mp-20308,TmSiRu,0.0,0
mp-1002574,KMnO2,2.2201,0
mp-23204,FeCl3,0.0,0
mp-542814,SiO2,5.5103,0
mp-4531,NaNO3,2.9553,0
mp-675342,NdPb4F11,4.4389,0
mp-568867,Si3N4,2.359300000000001,0
mp-626788,ReH3O5,3.9184,0
mp-771833,Sr2LaCl7,4.3991,0
mp-736446,InH8C8N4Cl7,2.0291,0
mp-971924,DyYAg2,0.0,0
mp-5714,TmCo3B2,0.0,0
mp-780486,Mn6O5F7,0.0,0
mp-862668,CeHg3,0.0,0
mp-4016,TlGaS2,1.7885,0
mp-14241,Tl2SiSe3,1.6797,0
mp-768284,Li3Sn(BO2)5,3.761,0
mp-850255,LiFeP3H8O13,3.3193,0
mp-557498,NaBi2AuO5,0.8399000000000001,0
mp-556400,Cs2K2TeO5,2.0248999999999997,0
mp-755651,CsGdO2,2.4731,0
mp-1041883,Mg(CoO2)2,0.3195999999999999,0
mp-761126,Cu4OF6,0.18480000000000008,0
mp-556975,Nd3CuSiS7,1.6179000000000006,0
mp-21162,SrPb3,0.0,0
mp-382,Th3As4,0.2716000000000003,0
mp-553946,CoAsS,0.0,0
mp-3551,TbAgTe2,0.9058000000000002,0
mp-995195,HC,0.0,0
mp-555967,TaP4S4Cl5,1.8505000000000003,0
mp-755624,Ca2PrO4,0.0,0
mp-973847,La2ZnGa,0.0,0
mp-641564,U4Ga12Pd,0.0,0
mp-753326,LiAg2F6,0.0,0
mp-3928,Na5P3O10,4.5287,0
mp-558959,CS5N5O3F,1.8810999999999998,0
mp-632417,LiHO2,0.5869,0
mp-554947,NaSiBO4,5.4139,0
mp-863730,KTl,0.020199999999999996,0
mp-19734,MgPbF6,3.0406,0
mp-18433,NdTaO4,3.6099,0
mp-21177,TmIn3,0.0,0
mp-14951,Rb3AlO3,2.6513999999999998,0
mp-561203,F2,2.7932,0
mp-21418,MnSnPt,0.0,0
mp-504539,CaLu2O4,3.9028,0
mp-4299,HoInPd,0.0,0
mp-1005831,Tb2Co3Ge5,0.0,0
mp-14864,Cs2Ti(PO4)2,3.4477,0
mp-647969,CoAg(CO)4,2.5383999999999998,0
mp-626287,Sr(H8O5)2,3.092,0
mp-865940,LiThAu2,0.0,0
mp-28791,Se2NCl3,1.4143,0
mp-690771,H8CS(NO)4,5.1351,0
mp-569916,Al3Pt2,0.0,0
mp-29726,LaSi2Rh3,0.0,0
mp-91,W,0.0,0
mp-7093,HoAgGe,0.0,0
mp-677152,Ho10Te7S10,1.5769999999999995,0
mp-11034,PrAl7Au3,0.0,0
mp-762671,Mn2(CO3)3,0.6529,0
mp-861885,LiDyAu2,0.0,0
mp-672209,RbCS(OF)3,5.4737,0
mp-542699,C2Se3N2,1.9759,0
mp-540883,As2P2S7,2.6386,0
mp-14588,Na2PtSe2,0.8645999999999998,0
mp-27063,Li2CuPO4,1.4033999999999995,0
mp-756427,Li5SbS4,1.3595000000000002,0
mp-1042892,ZnCu(GeO3)2,0.0039000000000000146,0
mp-772448,Mn3Co3(TeO8)2,0.0,0
mp-35216,BiTe3,0.0,0
mp-23317,AsBr3,3.1271000000000004,0
mp-777615,Sb2(SO4)3,3.3325000000000005,0
mp-28837,K3RhCl6,1.7025,0
mp-11351,CeAlNi,0.0,0
mp-28456,Sn15Os3O14,1.5080999999999998,0
mp-1029868,Sr5(SiN3)2,1.4059999999999997,0
mp-17658,Sm(NiGe)3,0.0,0
mp-7280,PPdS,1.0934,0
mp-3791,ScCo2Sn,0.0,0
mp-18943,BaNiO2,2.3034,0
mp-2804,LaP2,0.5579999999999998,0
mp-977366,NpSb3,0.0,0
mp-556812,SiO2,4.5145,0
mp-12265,SrCuF4,0.7596999999999999,0
mp-1046065,MgMnO2,0.6863999999999999,0
mp-559616,PH3CS3,2.1394,0
mp-634466,HgH12(ClO7)2,3.481,0
mp-1045404,MgTi2O4,0.0,0
mp-990448,C,0.26139999999999997,0
mp-759280,LiZr2(PO4)3,4.4162,0
mp-763319,V3O5F,0.047100000000000364,0
mp-11369,ErHg2,0.0,0
mp-30320,RbHfF5,6.798,0
mp-551437,Rb4CO4,1.1243999999999998,0
mp-434,SrAu2,0.0,0
mp-757480,Ti5Pb5O14,0.4157000000000002,0
mp-20275,CeGeAu,0.0,0
mp-758492,LiSb3(PO5)2,2.8343,0
mp-654199,Ta8NiSe8,0.0,0
mp-13303,ErSnAu,0.0,0
mp-12016,Rb2SiS3,2.8228999999999997,0
mp-568742,HgI2,1.3751,0
mp-1045547,CaCr2O4,2.3858,0
mp-15004,Ca3ZrSi2O9,4.4537,0
mp-766486,LiCuS2,0.5744000000000002,0
mp-766607,Na7Mn16O32,0.4796,0
mp-1043868,MgBi3O7,0.0,0
mp-1041400,MgSn4O9,0.7709000000000001,0
mp-28944,BiTeCl,1.5135,0
mp-754759,Y2O3,4.4468,0
mp-1042444,Mg2Sb3O8,0.0,0
mp-530399,LiAl5O8,5.2491,0
mp-10070,BaAg(PO3)3,3.1971,0
mp-23,Ni,0.0,0
mp-10172,Na,0.0,0
mp-849775,Li2Cu(Si2O5)2,0.7199,0
mp-1027714,Mo3W(SeS)4,0.6507999999999998,0
mp-569213,Dy4Ni12Sn25,0.0,0
mp-14901,NaZnAsO4,2.7708,0
mp-1013736,Ba3Bi2,0.0,0
mp-22957,SrClF,5.9367,0
mp-622618,BaLaNiRuO6,0.0,0
mp-6984,K2SiAs2,1.0021,0
mp-8921,Cd4P6SN12,2.9889,0
mp-30493,ZnCdPt2,0.0,0
mp-770412,ScMn2O5,0.0,0
mp-31125,Zr2Cr4Si5,0.0,0
mp-759230,NaAl11O17,4.402099999999999,0
mp-999317,OsN,0.0,0
mp-5168,AlSiP3,0.2894999999999994,0
mp-2823,NdP,0.0,0
mp-752637,HoBrO,4.3862000000000005,0
mp-1002184,TcB,0.0,0
mp-556281,Sc(PO3)3,5.0599,0
mp-14026,Ca2Ta2O7,2.2952,0
mp-15520,TbZn(BO2)5,5.0939,0
mp-510050,Dy2In16Pt7,0.0,0
mp-14558,Ba2Mg(PO4)2,4.696999999999999,0
mp-977113,MgPdAu2,0.0,0
mp-5342,GaAgS2,0.9598,0
mp-1008631,VCoTe,0.0,0
mp-561290,K2BiF5,4.7686,0
mp-773965,Nb2PbO6,1.9287999999999998,0
mp-20619,SbRh,0.0,0
mp-27576,Sc2GeO5,4.1263,0
mp-866612,CsAsH6(CSe)2,2.2014,0
mp-30670,Th3Ga2,0.0,0
mp-866820,CaSnS3,0.0,0
mp-542140,Ta2Tl4Se11,1.1078999999999999,0
mp-6567,LiNd(PO3)4,5.7983,0
mp-755574,LuAlO3,5.742900000000001,0
mp-990432,H6PbCI3N,1.6393,0
mp-16620,LuAl7Au3,0.0,0
mp-554353,TiS4(NCl)5,1.4847000000000001,0
mp-17922,Ca2P2O7,5.5138,0
mp-4608,KPF6,7.0206,0
mp-8235,K2SiP2,1.2073999999999998,0
mp-38975,PNO,5.1318,0
mp-783902,Dy2V2O7,0.47440000000000015,0
mp-570863,CrCoPt2,0.0,0
mp-640345,Cs2MnFe(CN)6,0.0,0
mp-997054,CuBiO2,0.8431999999999995,0
mp-555865,Na2Sr7Al6F34,6.9463,0
mp-760405,ErBO3,4.5583,0
mp-640079,Mn3Au,0.0,0
mp-867761,Sc2CoRu,0.0,0
mp-623006,UGa5Ir,0.0,0
mp-754206,LiBi3(ClO2)2,2.7135000000000002,0
mp-31118,SmScO3,4.3579,0
mp-999542,MnFe3,0.0,0
mp-569103,Mg3Hg,0.0,0
mp-779893,DyP5O14,5.4353,0
mp-722714,MgCdH4(N2O5)2,2.5641,0
mp-29584,K4BeAs2,0.8851000000000001,0
mp-27378,S4(BrN)3,1.7194,0
mp-22763,CeSnPt,0.0,0
mp-1045540,Li3Mn4O8,0.4809000000000001,0
mp-862365,Sc2OsPd,0.0,0
mp-1043896,LaMgCrFeO6,0.7804000000000002,0
mp-31037,CuTe2I,0.8199000000000001,0
mp-31011,Y2Si2Rh,0.0,0
mp-707366,NdH12C2N7O13,3.3087,0
mp-29871,Na4SeO5,1.3349000000000002,0
mp-639733,SiO2,5.6305,0
mp-28108,Na4SnTe4,0.9417,0
mp-774752,Li2MgTi3O8,3.2916,0
mp-865511,VCl4,0.12079999999999999,0
mp-780105,Li3Mn4(BO3)4,0.0,0
mp-10868,SmPPd,0.0,0