mp_id,formula,band_gap,fidelity
mp-7705,NbFeB,0.0,0
mp-14542,Y3FeB7,0.0,0
mp-1597,UO2,0.0,0
mp-11086,La2MgCu2,0.0,0
mp-680813,SrIn6Cu7,0.0,0
mp-19870,GaFe3,0.0,0
mp-757479,Li2Sn(PO3)6,2.2904999999999998,0
mp-644003,BaCo2P2H2O9,2.8682,0
mp-4843,CeZrO4,1.7423000000000002,0
mp-653855,Pr3PtI3,0.0,0
mp-1044203,BaMgV4O8,0.9439000000000002,0
mp-3160,Pr2Si2O7,4.8385,0
mp-27985,YClO,5.0908,0
mp-975893,PrMgAu2,0.0,0
mp-3035,Ce(FeSi)2,0.0,0
mp-19225,FeAgO2,1.1341,0
mp-11571,YSn3,0.0,0
mp-1029165,TeMoWSe3,0.0,0
mp-655052,CuH2(CO2)2,0.20319999999999994,0
mp-1895,TaO,0.0,0
mp-560791,CsNaTiO3,3.3617999999999997,0
mp-1009551,PbS,0.7372999999999994,0
mp-778800,LiMnF3,3.5504,0
mp-556419,ReO2F3,3.4217,0
mp-557786,CaNb2P2O11,2.4718,0
mp-1046464,BaMn2TlO6,0.0,0
mp-980945,Ti3Nb,0.0,0
mp-12268,BaCuF4,0.0,0
mp-1008921,CdN,0.0,0
mp-767404,Gd2As4O11,2.484,0
mp-9723,Sr4Li(BN2)3,2.0686,0
mp-1040828,LaCrAgO6,0.8117000000000001,0
mp-764791,Li2Mn(SiO3)2,3.4471,0
mp-676461,Ca2La2MgTi3O12,2.014900000000001,0
mp-777454,V5FeO12,0.0,0
mp-557910,Cd2PO4F,2.3693,0
mp-29594,La5B4N9,1.3068,0
mp-29829,LiAuS,1.5804,0
mp-29986,La2Al2I,0.0,0
mp-1029497,SrGeN2,2.4540999999999995,0
mp-1041593,Ca(CuO2)2,0.0,0
mp-505335,Ho2Mn3Si5,0.0,0
mp-559648,KBC4NF9,6.8492999999999995,0
mp-7568,ThSb2,0.0,0
mp-720401,B10H13CSN,2.9249,0
mp-1007881,FeB,0.0,0
mp-569204,Tl(CuTe)2,0.0,0
mp-1018727,HoS2,0.0,0
mp-11235,SmMg2Ag,0.0,0
mp-6696,K2Ti2(PO4)3,0.0,0
mp-27686,Cd2P2O7,2.7107,0
mp-1903,BaAl4,0.0,0
mp-756587,TiO2,2.3165,0
mp-17009,Ba3Te2O9,2.3646,0
mp-766429,SiH18C2N8(OF3)2,4.9958,0
mp-697670,KAlSi3O8,4.9267,0
mp-571661,K2HgCl4,2.297,0
mp-1009646,ReN,0.0,0
mp-1042020,Ca(NiO2)2,0.0,0
mp-778141,Sm2Pb2O7,1.0091999999999999,0
mp-653586,CuS4(N2Cl)2,0.10749999999999993,0
mp-6557,Cs2PO3F,4.3991,0
mp-21960,K9Fe2Se7,0.3782000000000001,0
mp-20353,GdGa,0.0,0
mp-389,SiPd,0.0,0
mp-18664,K4Ta2S11,1.7096000000000002,0
mp-768333,DyYO3,3.028,0
mp-18897,NaVTeO5,3.0152,0
mp-23208,UCl3,0.0,0
mp-973334,NaMg,0.0,0
mp-7755,Se,0.0,0
mp-559264,Bi2PdO4,0.0,0
mp-28900,Cd2As3Br,0.7680999999999998,0
mp-554935,Pr8Sb2S15,1.8916,0
mp-1023942,Te2W,1.0435,0
mp-1043070,ZnAs2WO7,2.7645,0
mp-7373,CdAs,0.0928,0
mp-779765,Li8Mn5Fe3(BO3)8,2.9851,0
mp-11081,CeSnAu,0.0,0
mp-1018627,ScBPt3,0.0,0
mp-764513,Li3Fe8(BO3)8,1.6683999999999999,0
mp-862586,Re3Pd,0.0,0
mp-18940,Sr2NiMoO6,2.3104,0
mp-16773,KTb(PO3)4,5.319,0
mp-730460,Na5H3(CO3)4,4.9055,0
mp-662553,B2Pb2S5,1.6623999999999999,0
mp-1020594,Zn2SiO4,2.6732,0
mp-978281,Mg3Ga,0.0,0
mp-780808,Li2V3TeO8,0.0,0
mp-17880,Al13Ru4,0.0,0
mp-9149,Er3P4Pd7,0.0,0
mp-1553,HoNi5,0.0,0
mp-758533,Li3Sb(PO4)2,2.9071,0
mp-545974,AlPO4,5.3232,0
mp-861944,KNaPrTaO5,3.4550000000000005,0
mp-695699,Te2AsS4N4(ClF2)3,0.7736999999999999,0
mp-555650,NdSeClO3,4.1926000000000005,0
mp-1047608,Co3(AsO4)4,0.10560000000000003,0
mp-555691,SrZn(SeO3)2,4.3754,0
mp-997162,MnAgO2,0.0,0
mp-754517,SrCa2I6,3.7364,0
mp-557125,K3ReClF6,1.8139999999999998,0
mp-13444,LiSn,0.0,0
mp-560032,NaNb2AsO8,2.6985,0
mp-1041256,NiO2,0.0,0
mp-7832,BW,0.0,0
mp-559482,Ti2Bi2O7,2.6108000000000002,0
mp-28593,Li3BrO,4.277500000000001,0
mp-4202,BaAl2O4,4.0969,0
mp-23715,BaH2,2.8699,0
mp-560555,Li8Bi2PdO10,0.8559999999999999,0
mp-556602,Ba3BiRu2O9,0.0,0
mp-23119,Cu5Se2(ClO4)2,0.0,0
mp-780275,AgBO3,0.0,0
mp-542020,Sc3B2Rh5,0.0,0
mp-680576,Ti2Se,0.0,0
mp-865910,CdAg3,0.0,0
mp-4998,Sr2IrO4,0.0,0
mp-1015065,Cr3N4,0.0,0
mp-28479,Sc2CCl2,0.8824000000000001,0
mp-976151,PrErMg2,0.0,0
mp-1691,La2Ni3,0.0,0
mp-756175,Zr2Bi2O7,2.7929,0
mp-556633,Na3VF6,2.5425,0
mp-759381,Li3Bi2(PO4)3,3.0965000000000003,0
mp-1043525,MgMn(Si2O5)2,3.0860000000000003,0
mp-21115,CeSi,0.0,0
mp-36765,Ti(CoO2)2,1.1373999999999995,0
mp-7048,Al2O3,4.4553,0
mp-774404,LiVP3HO10,2.1452,0
mp-23803,GaHO2,2.9954,0
mp-745208,DyFeH8C6(N3O2)2,2.6506999999999996,0
mp-696805,H2S,4.3246,0
mp-6964,NaTbO2,3.8922999999999996,0
mp-3531,Ca2P2O7,5.4165,0
mp-1018634,Lu(CuS)2,0.0,0
mp-979274,UAg3,0.0,0
mp-1005754,SmHSO5,5.5679,0
mp-15317,Rb2NaHoF6,6.479699999999999,0
mp-778274,Dy5Ti5O17,0.0,0
mp-779880,Ba2GeO4,3.4905000000000004,0
mp-753273,LiCuF4,0.0,0
mp-3472,PbSO4,3.9870000000000005,0
mp-17224,Cu(PO3)2,0.0,0
mp-32641,LiS,0.0,0
mp-14676,NdTa7O19,3.1661,0
mp-776979,Li9(CoO4)2,0.6781999999999999,0
mp-650943,MnTeC5O6F5,2.1447000000000003,0
mp-10284,YSi3Ni,0.0,0
mp-34144,MgAl2O4,4.5897,0
mp-7109,Lu(SiPt)2,0.0,0
mp-1019731,EuAl3(BO3)4,0.0,0
mp-505260,Te10Mo3I10,1.1818,0
mp-504265,CuPO4,0.36129999999999995,0
mp-10026,ScTe,0.0,0
mp-20864,VNi2Sn,0.0,0
mp-531793,MgAl2O4,4.020999999999999,0
mp-8678,NaAlPO4F,5.429500000000001,0
mp-559737,Rb2Tb3AlF16,0.0,0
mp-649177,ReTe5O6F25,2.1627,0
mp-4733,ThTi2O6,3.1455999999999995,0
mp-1028919,Te2MoWSeS,0.12670000000000003,0
mp-18540,CsEr2Cu3S5,1.5296000000000003,0
mp-1008669,U,0.0,0
mp-976971,NaPd3,0.0,0
mp-758861,Li3AgF4,2.6452,0
mp-37014,GdPaO4,2.3198,0
mp-862260,ScZn3,0.0,0
mp-9515,Al2SiO5,5.544199999999999,0
mp-15621,AlSb,0.02210000000000001,0
mp-31257,Mo15S19,0.0,0
mp-1046486,Ta2CrO8,0.0,0
mp-30811,Ni4W,0.0,0
mp-636240,MgCuSn,0.0,0
mp-29784,K2Mo9S11,0.0,0
mp-9522,K(ThSe3)2,0.0,0
mp-8700,K2Au3,0.0,0
mp-1029466,NaNiN,0.0,0
mp-772624,Al2CO,2.662799999999999,0
mp-722774,Ba3As2H14S8O7,1.9766000000000001,0
mp-626289,H3NO4,3.7239,0
mp-722378,CaZnP2H5O8,0.19390000000000007,0
mp-940,GdN,0.0,0
mp-9656,BaY2PdO5,1.9870999999999999,0
mp-31383,Hf6CoBi2,0.0,0
mp-1029532,Ca2CoN2,0.0,0
mp-765747,Li4TiCr3O8,0.0,0
mp-18484,La3MnFeS7,0.05370000000000008,0
mp-756818,LiSiBiO4,3.2515,0
mp-1002568,MgMn2O4,0.5051999999999999,0
mp-642646,BaP2(HO)4,5.2848,0
mp-1030736,Te4Mo3WSe4,0.05379999999999985,0
mp-754496,Li5SbS,0.5486999999999997,0
mp-697733,FeP2O7,0.0,0
mp-1045643,Ti9O13,0.0,0
mp-568789,TiSe,0.0,0
mp-559493,TiPCl7O,2.6595,0
mp-19015,VCrMoO7,2.4206,0
mp-27808,Te6Cl2O11,2.92,0
mp-15016,Nd4Si2Se3O7,2.3918,0
mp-976972,HoTmCu2,0.0,0
mp-1081,V3S4,0.0,0
mp-9781,K3SbS4,2.1699,0
mp-976885,Li2Mg,0.0,0
mp-504924,Cs2Te2O5,2.6609000000000003,0
mp-30958,Ca(BS2)2,3.0095,0
mp-1019511,AlPO4,5.556900000000001,0
mp-30362,Zr3Ag,0.0,0
mp-1003767,NaMn2O4,0.5752999999999999,0
mp-557411,KRb2VF6,2.5191000000000003,0
mp-2643,Ti3Cu4,0.0,0
mp-13322,LiGeRh2,0.0,0
mp-18010,Ta2Pd3Se8,0.6518000000000002,0
mp-625256,H5IO6,2.2191,0
mp-2614,HfAl3,0.0,0
mp-4877,CsNa2Si17,0.0,0
mp-20977,CuTeO3,0.0,0
mp-28416,Ce3Sn7,0.0,0
mp-645662,Ba14Na14LiN6,0.0,0
mp-862857,PaS3,0.0,0
mp-6408,ZnCu2GeS4,0.33729999999999993,0
mp-9789,CaPS3,3.0732,0
mp-755018,RbTaO3,2.3882,0
mp-1042205,YCo(WO4)2,1.7310999999999996,0
mp-608490,NaHgCl3,2.5331,0
mp-571164,Rb3AgSn3Se8,1.1725,0
mp-1048638,Sr4MgFe2(SO3)2,1.0546000000000002,0
mp-21718,Sr2In4Pt3,0.0,0
mp-6345,Ba3TbRu2O9,0.0,0
mp-23349,Bi(BO2)3,3.8401,0
mp-17918,Ba2SnS3F2,2.3078000000000003,0
mp-1042650,ZnCoMo2O7,1.1320000000000001,0
mp-540193,LiMnP2O7,1.6166,0
mp-758616,LiCuPO4,0.0,0
mp-1025956,Te2Mo2W(SeS)2,0.3221000000000003,0
mp-973285,HoLuAu2,0.0,0
mp-22862,NaCl,5.003299999999999,0
mp-13859,K3SiF7,5.9196,0
mp-770359,TaAsO4,2.6704000000000003,0
mp-2576,Sr2Ge,0.37760000000000016,0
mp-2692,NbO,0.0,0
mp-983062,K3Cd,0.0,0
mp-555037,TaS2,0.0,0
mp-559304,Er2Te5O13,3.0079999999999996,0
mp-979953,Yb3Ta,0.0,0
mp-358,HgTe,0.47619999999999996,0
mp-764345,CrPO4,2.1378000000000004,0
mp-11928,Pr2AlCo2,0.0,0
mp-5977,Nd2Zr2O7,3.3252,0
mp-210,BaLi4,0.0,0
mp-570256,Ag2HgI4,1.0991999999999997,0
mp-753677,Li3BiS3,2.558,0
mp-28007,BaHgS2,1.1569,0
mp-1042605,ZnCr4O6,0.0,0
mp-1041328,BaZnSnF7,0.0,0
mp-769280,Ca5Ta4O15,2.9774,0
mp-624249,Zn(C2N3)2,4.7631,0
mp-583714,Pr5O9,2.8244000000000002,0
mp-850964,Li3CrO4,1.3019999999999998,0
mp-21053,U(FeP3)4,0.0,0
mp-556001,NaBeSi3HO8,4.9780999999999995,0
mp-1018710,Hf2TaN3,0.0,0
mp-19290,Mn2As2O7,1.2487999999999997,0
mp-780156,Li5Mn6(BO3)6,0.7233,0
mp-556247,Dy3S3N,1.3945000000000003,0
mp-570985,SiC,1.9612999999999996,0
mp-763659,Li3V2(FeO4)2,0.9148000000000001,0
mp-16916,Ca6FeN5,0.0,0
mp-12041,DySbPd,0.0,0
mp-8253,Na5ReO6,2.2527999999999997,0
mp-972084,TbMn12,0.0,0
mp-15275,NaGdTiO4,2.2347,0
mp-1018668,CeTlCd,0.0,0
mp-25305,Y2Ti2S2O5,0.7881,0
mp-27259,CsCrI3,0.0,0
mp-694554,Mn3(P2O7)2,0.0,0
mp-978991,TmMg5,0.0,0
mp-774976,Li8Mn5Fe3(BO3)8,0.04300000000000015,0
mp-754540,CaPbI4,2.9147,0
mp-768159,LiSnPCO7,3.0130999999999997,0
mp-559557,Cs2Na2B10O17,4.7124999999999995,0
mp-8298,Sr4P2O,1.2134,0
mp-679936,Er7C2I12N,1.1629999999999998,0
mp-754723,Li2Ti3BiO8,0.0,0
mp-25205,Cu5(Si2O7)2,0.0,0
mp-866097,CuH6BrN2,2.1412,0
mp-2495,PrS,0.0,0
mp-31258,Pr2MoC2,0.0,0
mp-7895,Rb2O2,1.7600000000000002,0
mp-26541,LiSb(PO3)4,4.2104,0
mp-569261,Pr7CoI12,0.06640000000000024,0
mp-621667,Eu3Ag2,0.0,0
mp-1043903,CaLaFeCuO6,0.0,0
mp-1044241,CaCr2(PO5)2,0.0,0
mp-1034374,RbMg14BO15,1.7464000000000004,0
mp-10173,Li,0.0,0
mp-29176,Na8Si7O18,4.4437,0
mp-762012,LiNiPO4,3.2464000000000004,0
mp-13344,YbB4Rh,0.0,0
mp-771907,Li4Mn5Sn3O16,0.0,0
mp-27880,Nb3Cl7,0.9765000000000001,0
mp-643070,Ca4Mg3H14,3.1113,0
mp-570957,CsSiTe3,1.258,0
mp-17254,TlGaSe2,1.3725,0
mp-735556,Na2CoH8(CO5)2,2.955,0
mp-722316,KPH5C2SN3O4,3.7596,0
mp-972119,SrCaTl2,0.0,0
mp-975588,PuPtO3,0.0,0
mp-561067,KRb2FeF6,4.0965,0
mp-6652,KZn4(BO3)3,2.8165,0
mp-624400,CdI2,2.3318000000000003,0
mp-10676,Sc2AlSi2,0.0,0
mp-980190,LiYb3,0.0,0
mp-1019093,PaP2,0.0,0
mp-29739,Na5SnSb3,0.23270000000000035,0
mp-1043713,ZnNi3(P2O7)2,3.1799999999999997,0
mp-1009540,OsC,0.14530000000000065,0
mp-24152,HoH2,0.0,0
mp-571053,Al5Mo,0.0,0
mp-1007661,InSb,0.0,0
mp-554206,Cs2Al2As2O7,3.6603000000000003,0
mp-769871,Li2CrFe3O8,0.0,0
mp-20471,U4Si6Tc7,0.0,0
mp-866637,KPPdS4,1.477,0
mp-4524,ZnGeP2,1.1667,0
mp-16648,LiSn4Rh,0.0,0
mp-9993,Al2CdS4,2.4641,0
mp-1041783,YNi(WO4)2,0.9306999999999999,0
mp-780216,Li5Fe3O8,0.0,0
mp-779837,Hf2N2O,2.0789,0
mp-1274,CoS,0.0,0
mp-20745,Pb,0.0,0
mp-1019595,Ce5Zr3O16,1.8294999999999995,0
mp-384,MgP4,0.7289000000000003,0
mp-15236,CrSbSe3,0.47529999999999983,0
mp-2482,CaC2,1.3416000000000001,0
mp-531811,Ho2CdS4,1.3568999999999998,0
mp-16511,Mn3Al10,0.0,0
mp-1773,ReB2,0.0,0
mp-685945,Er14Ti10O41,1.1144999999999996,0
mp-864896,Zr2CoTc,0.0,0
mp-8414,K2HfF6,6.897600000000001,0
mp-557375,NaLiCO3,4.4576,0
mp-30237,Ba(CO)4,2.5917,0
mp-766422,Li3BiS4,1.6645,0
mp-859135,BaCaI4,3.7584999999999997,0
mp-19085,Ba2MnWO6,2.218,0
mp-541740,TaPO5,2.9698,0
mp-10835,RbSm2CuS4,0.9672000000000001,0
mp-16800,Sc2(SO4)3,4.3566,0
mp-764721,LiVOF3,1.9123,0
mp-998227,KHfO3,0.0,0
mp-1019559,Ca2B2O5,4.692,0
mp-631346,SrNiIr2,0.0,0
mp-27502,CNCl,5.8354,0
mp-1044679,Zn(SbO2)2,0.1817000000000002,0
mp-29040,Li3Zr4F19,5.6198,0
mp-22752,FeSn2,0.0,0
mp-1043184,V4Zn(CuO4)3,0.0,0
mp-759244,Li12Nb14ZnO42,3.2302,0
mp-5161,Sm(GeRh)2,0.0,0
mp-7810,UVC2,0.0,0
mp-2827,YCo5,0.0,0
mp-864796,EuCdHg2,0.0,0
mp-1014287,C3N,0.0,0
mp-998212,RbAgBr3,0.0,0
mp-1019378,Al3GaN4,3.3481000000000005,0
mp-973964,Lu2GaAg,0.0,0
mp-21799,Ta5P3,0.0,0
mp-556867,K2PrZr(PO4)3,4.4301,0
mp-795607,V2N4O11,0.6568,0
mp-569517,C,4.5686,0
mp-649,FePt3,0.0,0
mp-3584,NdPO4,5.675000000000001,0
mp-558953,Bi2O3,0.0,0
mp-721239,Li10Ge(PSe6)2,1.3131000000000002,0
mp-865558,AcTe3,0.0,0
mp-8455,CsF,5.9329,0
mp-759235,Li2CuF5,0.0,0
mp-676278,Ca2SiO4,4.053000000000001,0
mp-555207,BN(OF2)2,2.9938000000000002,0
mp-15123,Th(AlC)4,0.0,0
mp-631545,LiBBr2,0.4841,0
mp-763192,V2OF5,1.6801,0
mp-1048438,Ba2AlTlCr2O7,0.0,0
mp-650524,Sb3S2XeN(O2F9)2,1.6944,0
mp-649334,FeSCl7,1.3835,0
mp-540627,K2Ba(SO)12,2.7286,0
mp-10013,SnS,0.1656000000000004,0
mp-640039,Pu2InRh2,0.0,0
mp-22969,PbIF,2.0757,0
mp-29585,K4CdAs2,0.6093999999999999,0
mp-754835,Na6CuO4,0.30889999999999995,0
mp-621351,SmInAu,0.0,0
mp-771365,Li24Ti5Cr7O36,1.1757999999999997,0
mp-31473,K2Hg7,0.0,0
mp-864717,PaCu2Sn,0.0,0
mp-980200,Zn3Rh,0.0,0
mp-1043783,Bi2O5,0.0,0
mp-29291,I2(OF2)3,2.3164,0
mp-696812,B3H7N,1.4863,0
mp-9216,Ca3Tl2O6,0.7309999999999999,0
mp-770362,Li3Al2VO6,2.2174,0
mp-581173,Cs10Si7O9,1.3593000000000002,0
mp-12878,Sr2YSbO6,3.7004,0
mp-21478,U(CuP)2,0.0,0
mp-626829,ReH3O5,1.4014,0
mp-776490,Al2O3,5.4415000000000004,0
mp-644827,TePCl9,1.7973000000000001,0
mp-27979,LaI3,2.0643000000000002,0
mp-735530,Ba2Fe3P6HO22,2.5383,0
mp-555977,Rb2ZnO2,1.5006,0
mp-561052,Ba4Na2CaTi3Si4(SO13)2,2.1206000000000005,0
mp-29740,Tl(ZnSb)2,0.0,0
mp-567727,Pr2Co2I,0.0,0
mp-628784,K3TiCl6,0.33540000000000003,0
mp-2341,Li3N,1.218,0
mp-540736,BaCd(PO3)4,4.396400000000001,0
mp-755000,LiTiO2,0.0,0
mp-29081,P4SO7,4.0531999999999995,0
mp-28393,P3Se4I,1.6437000000000002,0
mp-760491,Ce4Y2O11,1.8249,0
mp-24289,HPd,0.0,0
mp-1358,DyIr2,0.0,0
mp-672336,Li5Ca7Sn11,0.0,0
mp-771343,Na3TlPCO7,0.0,0
mp-8132,Li(TiSe2)3,0.0,0
mp-753299,LiAgF2,1.2702,0
mp-29288,TlGeI3,1.9199999999999995,0
mp-638445,C4SO2,1.4474,0
mp-676314,Dy10Ti6O27,1.7770000000000006,0
mp-696695,BaCaCO3,0.0,0
mp-30211,La5Sn3I,0.0,0
mp-561920,CsAgF3,0.0,0
mp-768875,Li6B4O9,4.4245,0
mp-15605,ScSi3Ni2,0.0,0
mp-1047074,CaSn3(P2O7)2,2.5087,0
mp-30368,Ca5Au3,0.0,0
mp-753982,Li3CrS4,0.0,0
mp-571060,In9Pt13,0.0,0
mp-30175,Ca(AlZn)2,0.0,0
mp-574498,Cs3Bi2,0.0,0
mp-179,YZn,0.0,0
mp-570125,Hg2TeBr3,1.8766,0
mp-759876,Na5SbO5,1.6411999999999998,0
mp-3245,SnP7Au3,0.028100000000000236,0
mp-28352,YSiRh2,0.0,0
mp-11213,BaAgSb,0.0,0
mp-780585,Ti(FeO2)2,1.5819999999999999,0
mp-1027395,Te2Mo(WS2)3,0.0,0
mp-703348,UP3HO11,2.522,0
mp-2948,Si2N2O,4.197399999999999,0
mp-770765,Na3MnBAsO7,1.4399,0
mp-560641,Ba12Cl5F19,5.980499999999999,0
mp-43,U,0.0,0
mp-755924,Y2CuO4,0.0,0
mp-772955,Ba2LaCl7,4.1371,0
mp-865335,Lu2NiRu,0.0,0
mp-973343,Li2MgHg,0.0,0
mp-540925,Hg2AsF6,0.7378999999999999,0
mp-17392,Sr2ZnGe2O7,3.1136999999999997,0
mp-971831,Tm3Th,0.0,0
mp-12119,Cs(FeSb)2,0.0,0
mp-14501,Ba(As3Pt2)2,0.19179999999999975,0
mp-1019568,CaAl2SiO6,4.4797,0
mp-601202,NaH2CSO4F3,5.766400000000001,0
mp-4664,MnGeRh2,0.0,0
mp-607225,Mn2Ga5,0.0,0
mp-15968,Sm(CoSi)2,0.0,0
mp-669692,NbPd3,0.0,0
mp-15796,LiHoSe2,1.5729000000000002,0
mp-16108,Cs3P6N11,4.087899999999999,0
mp-504884,Cu3AsS3,0.0,0
mp-861894,Li2LaSn,0.0,0
mp-9824,Ho2Se3,0.7866999999999997,0
mp-553907,Rb3AgO2,1.5831,0
mp-21090,MnNiGe,0.0,0
mp-978855,Sn3B,0.0,0
mp-18291,BaSbTe3,0.37429999999999986,0
mp-8615,NbBO4,2.4711,0
mp-16053,CuSiO3,0.10299999999999976,0
mp-16755,Mg(AlS2)2,2.0149999999999997,0
mp-11870,Hg2Rh,0.0,0
mp-2189,CrSe,0.0,0
mp-775752,Li6VSn3(PO4)6,1.5020000000000002,0
mp-29889,Tl2PdCl4,1.1509,0
mp-569687,CuHgSeCl,0.6294999999999997,0
mp-23630,NbBi4ClO8,1.3611,0
mp-989549,Cs2PbClF6,0.09899999999999998,0
mp-556708,KUP3O11,2.2711,0
mp-31481,Ca3Ga3Ir2,0.0,0
mp-31373,H18SO12,5.218999999999999,0
mp-540204,Co2P3O10,0.516,0
mp-541870,KAl2P2H5O11,5.2526,0
mp-775365,Al6H16C5(Cl2O)6,5.515700000000001,0
mp-721081,KUP(H2O3)3,2.4731,0
mp-3977,CsB3O5,5.304,0
mp-642999,TmH3(CO2)3,3.9339000000000004,0
mp-769494,Na5Fe2P2(CO7)2,0.956,0
mp-5472,Nb2Cd2O7,1.8871,0
mp-27452,Al2PdCl8,1.5737,0
mp-778010,LaTa2NO5,2.0492,0
mp-705514,SbHC3(NCl3)3,2.0316,0
mp-7848,AlPO4,5.6636999999999995,0
mp-1043664,Ca(SbO2)4,0.0,0
mp-567572,GdCBr,0.0,0
mp-30481,CaPt5,0.0,0
mp-6336,Na3In(PO4)2,3.3646,0
mp-644514,MnO2,0.5194999999999999,0
mp-978950,Sm2ZnIn,0.0,0
mp-30595,CuSnRh2,0.0,0
mp-29111,Al2Fe3Si4,0.0,0
mp-23810,BaAsHO4,3.774,0
mp-866111,Ho2IrRu,0.0,0
mp-559911,V4S9Br4,0.6574,0
mp-22866,HoBi,0.0,0
mp-567604,GeBr4,2.9329,0
mp-21271,PrMnGe,0.0,0
mp-972405,U3Cl,0.0,0
mp-625199,ScHO2,4.4927,0
mp-6950,BaSb3,0.0,0
mp-510152,DyNiSn,0.0,0
mp-772060,Li3NbFe3O8,0.8872,0
mp-752840,Na6SbO5,0.0,0
mp-18680,Tm8S11,0.0,0
mp-1027537,Mo3W(SeS3)2,0.5347000000000004,0
mp-560120,Na2Pd(NO3)4,1.7034,0
mp-695196,AsS2N2OF9,0.327,0
mp-11675,NbTe2,0.0,0
mp-756781,Sr3Li2Nb4O13,0.0,0
mp-1044127,ZnNi2(PO5)2,0.0,0
mp-645172,CsAs2Se3,1.3891,0
mp-762517,Li4Ti3Fe3(TeO8)2,1.1232999999999995,0
mp-21884,EuGa4,0.0,0
mp-17031,KAlP2O7,5.2966999999999995,0
mp-9348,KRb2ScF6,6.5217,0
mp-10616,BaLiAs,0.5951,0
mp-755641,LiCuCO3F,0.0,0
mp-769398,Na3IO,1.6772,0
mp-30949,Sr3SiO,0.42959999999999976,0
mp-1040834,WO2,1.4003,0
mp-22971,SbSBr,1.7647999999999997,0
mp-13254,CeMgZn2,0.0,0
mp-749,SmN,0.0,0
mp-2725,TbIr2,0.0,0
mp-972876,Sc3Cd,0.0,0
mp-1044725,CaPrV2O6,0.0,0
mp-10554,Ca3TlN,0.0,0
mp-21542,K2CeTa5O15,0.0481000000000007,0
mp-11816,BaCdGe,0.0,0
mp-1027273,MoW3S8,1.2576,0
mp-674976,Zr9ScO20,0.0,0
mp-1688,ErAs,0.0,0
mp-541971,Tm2Ni12P7,0.0,0
mp-24338,Sr5As3H,0.6763999999999997,0
mp-857352,Na4Bi2O5,2.1576,0
mp-31818,Fe3(PO4)4,0.0,0
mp-2688,HoGa3,0.0,0
mp-11556,PuRu2,0.0,0
mp-982870,HfAlIr2,0.0,0
mp-4784,CaPtO3,1.2795999999999994,0
mp-11711,Gd(BO2)3,2.7361000000000004,0
mp-28731,V6C5,0.0,0
mp-7072,Th(CoSi)2,0.0,0
mp-1638,SrAl2,0.0,0
mp-10969,CdCN2,2.2933,0
mp-11525,TmNi,0.0,0
mp-554342,Hf3Cd3AgF20,0.0,0
mp-706588,Na3NdV2O8,3.6913,0
mp-559268,OsXe(O2F3)2,2.6167,0
mp-694965,Li3(NiO2)8,0.0,0
mp-775204,Li2V3WO8,1.4997000000000003,0
mp-868032,Pb13(N2O13)2,0.05270000000000019,0
mp-30871,Ta3Sn,0.0,0
mp-1028975,Te2MoWS2,0.0,0
mp-684677,Al2O3,3.9762999999999993,0
mp-32686,CoO2,0.0,0
mp-777681,Li3VF6,2.5144,0
mp-4823,Na2PdC2,0.8829,0
mp-39542,KRb2ZrOF5,4.5842,0
mp-10985,RbCu3S2,0.4685000000000006,0
mp-569391,ZrCl3,0.0,0
mp-582067,Hf3As,0.0,0
mp-677010,YbTi2CdO6F,0.0,0
mp-975653,PrS3,0.0,0
mp-21748,TbSi3Rh5,0.0,0
mp-30152,CeSbTe,0.0,0
mp-1876,SnS,0.08940000000000037,0
mp-570425,YbGa5,0.0,0
mp-1047052,Nb2Zn2WO8,0.24110000000000031,0
mp-505081,Ti2NiP5,0.0,0
mp-541707,K6Na3AlSb4,0.7282999999999997,0
mp-779294,Na3Sb5O14,1.1243999999999996,0
mp-532727,K2YZr(PO4)3,4.564,0
mp-1046917,Zn(WO2)2,0.6776,0
mp-1019281,Ta2N3F,0.0,0
mp-705680,La2Mo2O9,3.0656999999999996,0
mp-768235,B2TeO5,3.3161,0
mp-770388,RbFe3O5,1.6244999999999998,0
mp-557175,ZnS,2.0281000000000002,0
mp-705713,Bi14WO24,2.5441000000000003,0
mp-768053,Na2FePCO7,2.444,0
mp-22816,TbGeRh,0.0,0
mp-780319,Li3MnP2H2O9,0.8976,0
mp-27835,K2OsBr6,0.0,0
mp-768788,Li3Bi(BO3)2,3.9539000000000004,0
mp-642660,Mg2CoH5,0.19469999999999965,0
mp-865288,TmTlRh2,0.0,0
mp-557010,CdAs2S18N12(OF2)6,2.1983,0
mp-774715,Ba4LiNb3O12,2.4458,0
mp-1041428,ZnMo3P3O13,0.4083000000000001,0
mp-1019520,Ba3Ca2(SiN3)2,1.5518,0
mp-999193,SmAu,0.0,0
mp-755417,Ba3(BO3)2,4.1693,0
mp-997098,CuPtO2,0.0,0
mp-753901,Er2CuO4,0.0,0
mp-1683,ZrSe3,0.39369999999999994,0
mp-35975,Li2MoO3,1.5972999999999997,0
mp-756136,CaPbI4,2.6676,0
mp-558163,Pb(SeO3)2,1.2782999999999998,0
mp-910,NbC,0.0,0
mp-1042482,BaYVCuO5,0.0,0
mp-542382,ThTl,0.0,0
mp-20763,Na2Gd2Ti3O10,1.7123999999999997,0
mp-7447,Rb2Se3,0.6706000000000001,0
mp-2050,HoSb,0.0,0
mp-754912,LiCuO2,0.0,0
mp-571211,V3Si,0.0,0
mp-22506,Cs6InAs3,0.5004999999999997,0
mp-974387,Nd2AgHg,0.0,0
mp-772188,DyErO3,3.0896,0
mp-28117,VCl3,0.0,0
mp-1034797,RbNaMg14O15,1.3200000000000003,0
mp-765725,Na3Li5Mn5O9,0.5596000000000001,0
mp-20722,CeFeGe3,0.0,0
mp-571559,CdI2,2.3544,0
mp-574239,Tm3AlC,0.0,0
mp-10905,Al3Pt2,0.0,0
mp-2258,Cu3Au,0.0,0
mp-573891,K2Ag4Se3,0.0017000000000000348,0
mp-753990,BaY2F8,6.276,0
mp-1029072,Te2MoWS2,0.0,0
mp-755213,YbCO3,4.1307,0
mp-504891,La3MnGaS7,0.4502999999999995,0
mp-36225,Na3ZrF7,6.1421,0
mp-975880,PrSmMg2,0.0,0
mp-21826,UNi5Ge3,0.0,0
mp-721303,LiBeH5(NF2)2,5.6924,0
mp-995285,VFe11C4,0.0,0
mp-760490,Mg7Cu2O9,0.0,0
mp-680781,Rb3Tm(SO4)3,0.4684,0
mp-24132,KH18RuN6(ClO2)4,0.0,0
mp-1043492,ZnSn2(PO5)2,1.8704999999999994,0
mp-720861,H13ClO6,4.9350000000000005,0
mp-973956,Lu2CdAg,0.0,0
mp-677212,Ba3LiTa3Ti5O21,2.2708000000000004,0
mp-604459,Li2B4H4O9,5.1171999999999995,0
mp-554258,SiO2,5.4489,0
mp-856,SnO2,0.6519000000000004,0
mp-569484,Cs3Ti2Cl9,0.21810000000000018,0
mp-1018648,AuN2,0.0,0
mp-703468,Na3SiH5O6,3.8850999999999996,0
mp-705380,LiMo2P3O13,2.7289000000000003,0
mp-546449,BaCu3O4,0.0,0
mp-680120,CdI2,2.355,0
mp-780530,Na2MnPCO7,0.6287,0
mp-568662,BaCl2,5.4309,0
mp-862777,TmPaRu2,0.0,0
mp-675372,CaZr4O9,2.2314000000000003,0
mp-972228,Zr3As2,0.0,0
mp-20652,PbF3,1.8821999999999999,0
mp-1047904,Cr3P3O13,0.0,0
mp-568001,AlHg2SbCl4,0.8372,0
mp-11421,Gd,0.0,0
mp-641917,ZnSiO3,3.3367999999999993,0
mp-935266,LiC2NO6,1.616,0
mp-19228,K2MnV4O12,1.9929999999999999,0
mp-974779,NdTh3,0.0,0
mp-1013762,LiTi2P2O9,0.042500000000000426,0
mp-7798,MgGeN2,2.6358,0
mp-755529,SbPHO5,2.0280000000000005,0
mp-568350,Rb2ZnCl4,4.5226,0
mp-7478,RbTmO2,3.6638,0
mp-30743,TmIr2,0.0,0
mp-772318,Li2Cr2O7,2.4928999999999997,0
mp-975524,InGe3,0.0,0
mp-3557,Eu(CuGe)2,0.0,0
mp-1042971,Sr2AlCoCu2O7,0.0,0
mp-754794,La2S2O,2.1692,0