mp_id,formula,band_gap,fidelity
mp-553918,Eu2B5ClO9,0.8729000000000005,0
mp-11644,Li2Ca,0.0,0
mp-17524,GeAs2,0.7096999999999998,0
mp-22543,Sr2GdCu3(PbO4)2,0.0,0
mp-552738,TmBi2IO4,1.4258999999999995,0
mp-7703,DyTaO4,4.0605,0
mp-542063,Rb4H6C2O9,3.9628,0
mp-541375,CdH4Br3N,2.5461,0
mp-7107,Er(SiPt)2,0.0,0
mp-684731,Ti13S24,0.0,0
mp-6501,BaHo2ZnO5,3.0589,0
mp-698623,K4W11O35,0.0,0
mp-28980,K3BiSe3,2.0592,0
mp-720379,K3NaP4(H2O7)2,4.540500000000001,0
mp-18256,Mg2B2O5,5.1536,0
mp-753614,Fe(PS3)2,0.0,0
mp-1029458,Zn2CrN3,0.0,0
mp-556583,CsSb2F7,4.2993,0
mp-510545,K2BeH4(SO5)2,5.2395,0
mp-532059,Er2CdS4,1.0895,0
mp-30787,MoRh3,0.0,0
mp-28279,Gd2NCl3,2.1399999999999997,0
mp-1047077,CaTi3(P2O7)2,0.1634000000000002,0
mp-608655,Mn5Si2,0.0,0
mp-1031421,KNaMg6O7,0.0,0
mp-865227,TmMgCd2,0.0,0
mp-765076,LiMnOF2,1.2316,0
mp-36234,NaTlO2,0.7043999999999997,0
mp-85,In,0.0,0
mp-759943,Al2O3,4.0645999999999995,0
mp-27618,Na8Ga2O7,2.2588000000000004,0
mp-768175,Dy2SO2,2.8613000000000004,0
mp-8919,ErPPd,0.014599999999999724,0
mp-770709,RbLi2Fe2(BO3)3,2.3855,0
mp-4142,MnSbPd,0.0,0
mp-754998,Ce2SeO2,0.0,0
mp-753650,BaLaCl5,3.4181999999999997,0
mp-4990,MnSnRh2,0.0,0
mp-545,TiS,0.0,0
mp-1046696,Sr2YAlCr2O7,1.3326000000000002,0
mp-557824,Rb2(ReS2)3,1.359,0
mp-28290,CdTeO3,3.0793,0
mp-561973,K(TeO3)2,1.0307,0
mp-862845,IrCl2,0.0,0
mp-780164,Na6Co2C4SO16,2.7228000000000003,0
mp-18706,Y5(FeTe)2,0.0,0
mp-667447,TeAs(SeF3)2,1.4188,0
mp-772783,Li2Mg3Ti6O16,3.288,0
mp-628808,Cu7Hg6,0.0,0
mp-648805,Os7C19SO19,1.4829999999999999,0
mp-764778,Li3MnO4,0.0,0
mp-730585,LiBH2OF4,7.129,0
mp-631549,HfGeB2,0.0,0
mp-757914,Li3Ti2(PO4)3,0.010200000000000209,0
mp-4728,Cu2GeSe3,0.0,0
mp-1865,UN,0.0,0
mp-12673,Lu2SO2,3.0925,0
mp-35082,BH6N,6.0656,0
mp-6135,Ba2PrIrO6,0.0,0
mp-974616,Pt3Rh,0.0,0
mp-24396,MgH14SO11,5.1954,0
mp-1393,Sn4Au,0.0,0
mp-559955,Pr6Si4S17,2.5372000000000003,0
mp-1560,LaTe,0.0,0
mp-17965,KGaTe2,1.2481,0
mp-570356,Ca5Ir,0.0,0
mp-699450,LiH2SNO3,5.017099999999999,0
mp-8995,Cs2NbF6,0.23919999999999986,0
mp-1041757,YBi(WO4)2,1.779,0
mp-1030605,Te2Mo3WSe6,0.0,0
mp-1022723,Ce2Cu(NO)2,0.0,0
mp-758086,LiSn(PO3)3,4.1888,0
mp-16886,CdAu,0.0,0
mp-559982,Na2AlZnF7,4.8225999999999996,0
mp-696762,TlP2H5O8,5.105600000000001,0
mp-1018715,Hf5Pb,0.0,0
mp-752705,Ti(PO3)4,2.3564,0
mp-28351,Dy2GeO5,3.9954,0
mp-622183,Co2PClO4,2.6014,0
mp-570393,Cu8GeSe6,0.3182999999999998,0
mp-4758,K2NbF7,4.5283999999999995,0
mp-638590,MnTl2GeTe4,0.18649999999999967,0
mp-10857,Tm(BC)2,0.0,0
mp-707319,BiH3Ru3(CO)9,2.2639,0
mp-15248,K3Nb3(BO6)2,1.9127999999999998,0
mp-865185,Mg(BeAs)2,0.4079999999999995,0
mp-27456,BaBr2,4.3731,0
mp-757853,Na4Ti5O12,2.9088,0
mp-704942,Li2Cr(PO3)5,2.1007,0
mp-625377,HNO,3.4135,0
mp-976319,NaHo3,0.0,0
mp-777751,Li3Nb3P8O29,2.4834,0
mp-2743,LiPd,0.0,0
mp-686016,KSn2F5,2.9857,0
mp-8022,Al2O,0.0,0
mp-1042086,MoS2,0.04180000000000028,0
mp-560998,SiO2,5.5774,0
mp-569975,Yb3CoSn6,0.0,0
mp-1013911,Na2CoP2O7,3.0677000000000003,0
mp-9799,Yb4As2O,0.9593000000000003,0
mp-15613,Cu(RhS2)2,0.0,0
mp-504811,Rb2Pb4O7,0.9863,0
mp-2763,Nd2O3,3.8109,0
mp-28989,Li10BrN3,1.3667,0
mp-8537,S(OF)2,5.8812,0
mp-557691,La2O3,3.4110000000000005,0
mp-11055,CsSn,0.7471999999999999,0
mp-849071,Cr3S4,0.0,0
mp-779305,Li2FeBO4,2.6807999999999996,0
mp-29284,Ca2Sb2S5,1.4826000000000001,0
mp-1013807,Li3Co2(GeO4)3,0.0,0
mp-553242,NdBi2BrO4,1.2198999999999995,0
mp-755542,K2TiPCO7,0.1251000000000002,0
mp-975638,Pr3Hf,0.0,0
mp-974990,Rb3Hg,0.0,0
mp-557023,NbVF6,0.0,0
mp-769466,Y2Ge2O7,3.8961,0
mp-18132,K4SnSe4,1.7396,0
mp-21282,Na2SO3,4.908899999999999,0
mp-707317,ErP4HO12,5.554600000000001,0
mp-1044893,Ba2YV2F11,2.4633,0
mp-708993,Na2PH15O11,4.5395,0
mp-776000,Ti3Mn2Sb(PO4)6,0.0343,0
mp-541692,Na2In2Sb3,0.6920999999999999,0
mp-11830,LiCeSn,0.0,0
mp-984729,BaSr3O4,2.5111,0
mp-4421,LaTaO4,3.4680000000000004,0
mp-4920,Nd(GeRh)2,0.0,0
mp-547017,LiAlAs2O7,3.0496999999999996,0
mp-27587,Li8Pb3,0.0,0
mp-779909,V6O7F5,1.1605999999999996,0
mp-623814,Hf8FeTe6,0.0,0
mp-977382,Ta2VRu,0.0,0
mp-774908,LiTiNbO4,0.0,0
mp-3594,Gd3GaO6,2.9661,0
mp-618,Pd7Se2,0.0,0
mp-773128,Li10Co4O9,1.3986,0
mp-757045,Ti3Nb(CuO4)3,0.0,0
mp-2364,PaO2,0.0,0
mp-616135,Cs5SiP3,0.8416000000000001,0
mp-1029154,Te2MoWSeS,0.0,0
mp-696088,Sb2H20(Cl4O3)3,1.7147999999999999,0
mp-776756,Li4TiMn2Ni3(PO4)6,2.2646,0
mp-1006099,Lu(BRh)4,0.0,0
mp-560739,K3Li3TeO6,2.6948,0
mp-705031,Li2Ni(PO4)2,0.0,0
mp-758038,La2Ti3O9,2.1407999999999996,0
mp-560159,B6H21C5N2O,4.4939,0
mp-776651,Mn3NiO4,0.09499999999999975,0
mp-1019587,CaAl2SiO6,4.602400000000001,0
mp-643263,Na3VH6O7,3.9991,0
mp-779434,Li5La3Nb2O12,3.4842,0
mp-623,HgPt,0.0,0
mp-23238,Ta3I7,0.8864000000000001,0
mp-2914,LaSi3Ir,0.0,0
mp-10684,CaTe,0.0,0
mp-18071,Ce3SiAgSe7,0.0,0
mp-11952,KHg11,0.0,0
mp-760546,LiCu2(CO3)2,0.0,0
mp-778229,Li9Cr3(WO4)7,0.0,0
mp-15013,RbBS2,2.8271,0
mp-866141,TiFe2Si,0.40249999999999986,0
mp-626553,Ca(H8O5)2,3.3637,0
mp-4476,HoCuSi,0.0,0
mp-1013709,Ba3AsN,0.0,0
mp-37496,NaCe5S8,0.0,0
mp-7441,KP,1.0307,0
mp-554756,PH6CNO3,5.2433000000000005,0
mp-571418,RbYbBr3,4.4851,0
mp-695892,KH(IF6)2,4.4279,0
mp-4276,NaSi2Pd3,0.0,0
mp-754223,Ta2CuO6,0.0,0
mp-981200,Zn3Cd,0.0,0
mp-561283,CdGaH14O7F5,4.338,0
mp-33948,Ho2Ti2O7,2.7086,0
mp-1046781,Sr2AlGaW2O7,0.8241999999999994,0
mp-7726,Rb2UO4,1.8996,0
mp-569060,Cs2PSe5,1.4721000000000002,0
mp-937761,Li7ZrO6,0.0,0
mp-555048,NaAlCdF6,4.6080000000000005,0
mp-720430,CaB3H7O9,5.4108,0
mp-1041113,HoMn2ZnO6,0.0,0
mp-22302,ZrVP,0.0,0
mp-972949,LaSmZn2,0.0,0
mp-556078,MgAs2(XeF8)2,2.9713000000000003,0
mp-3686,YbBRh3,0.0,0
mp-14131,K2Pd(NO2)4,2.0739,0
mp-779074,Li8Mn7Fe(BO3)8,2.8964,0
mp-29605,SrPr2O4,3.3444000000000003,0
mp-30209,LiBH4,6.8115000000000006,0
mp-850404,Li2FeO2F,1.8875000000000002,0
mp-21122,NdSb2Pd,0.0,0
mp-699587,MnSi6Pb8O21,3.2441000000000004,0
mp-3354,Ho3(GePd)4,0.0,0
mp-1045691,Mg(MoO3)2,0.8715999999999999,0
mp-985593,NaAg(CO2)2,2.5393999999999997,0
mp-28198,RbInI4,2.5376000000000003,0
mp-679928,Rb3Pr2(NO3)9,3.4083,0
mp-10478,CeAsRh,0.027800000000000047,0
mp-686239,Sr5Li25La7Nb8O48,3.2108999999999996,0
mp-6678,KHgSbS3,1.8349,0
mp-27475,WSCl4,1.9711,0
mp-9711,Ba2Si5N8,2.8812999999999995,0
mp-569886,KIn9Ni2,0.0,0
mp-541758,Ta2Se17Br12,1.3907,0
mp-18755,NdMnSbO,0.0,0
mp-972384,V2Se2O11,2.1709,0
mp-32895,SiO2,5.7862,0
mp-20469,YbIn3,0.0,0
mp-976135,PrEr3,0.0,0
mp-5704,Tl3AsS4,1.6893000000000002,0
mp-20664,Mn2Sb,0.0,0
mp-10750,Dy,0.0,0
mp-769189,Dy2Bi2O7,0.0,0
mp-571594,K3AgSn3Se8,1.1216000000000002,0
mp-864646,ErAgHg2,0.0,0
mp-23550,KBrF4,3.2009,0
mp-571246,GeBr4,2.9647,0
mp-690607,K2BaNi(NO2)6,1.6928999999999998,0
mp-556531,LiSi2BO6,5.5866999999999996,0
mp-1017982,TlN,0.0,0
mp-553884,Ba5Si(Br3O2)2,4.2627999999999995,0
mp-616210,Pr5In11Ni6,0.0,0
mp-976923,NaReO3,0.0,0
mp-649616,Pd(XeF8)2,1.4046000000000003,0
mp-1047054,Sr2Y2Fe2O7,1.0278,0
mp-621612,AgPb2Br5,1.9373999999999998,0
mp-1030419,Te3MoWS,0.00550000000000006,0
mp-3173,CaAlSi,0.0,0
mp-557969,LiLa2S2O8F3,4.5891,0
mp-13092,Zr6Al2Ni,0.0,0
mp-1049287,HoMg(SnO3)2,0.0,0
mp-866078,NaNd(SO4)2,5.653,0
mp-22018,Hf(MnGe)6,0.0,0
mp-769284,Dy2SeO2,2.1494999999999997,0
mp-606503,Ca3InAu3,0.0,0
mp-1025926,Te2Mo2WS4,0.0,0
mp-685371,Ge9(Sb5Te12)2,0.0,0
mp-976768,NaMg3,0.0,0
mp-12183,KB5O8,5.3412,0
mp-559066,Ba3Y(BO2)9,5.1876999999999995,0
mp-772510,YTh4O10,0.0,0
mp-695119,Na3Zr2Si2PO12,4.4926,0
mp-30167,Rb3Os2Br9,0.48730000000000007,0
mp-541218,GdP2H9O10,2.8792,0
mp-568002,HfI3,0.0,0
mp-19947,Pu2SnPt2,0.0,0
mp-1595,Nb2O5,2.171,0
mp-505242,Ru(OF3)2,0.0,0
mp-1044218,Ca(MoO2)4,0.0,0
mp-505171,NaTiCuS3,0.15340000000000042,0
mp-973910,PaAlCu2,0.0,0
mp-979266,Sm3Al,0.0,0
mp-559771,Pr6O11,0.0,0
mp-30798,NbZn2,0.0,0
mp-13236,Ho5Si3,0.0,0
mp-13853,P3Ir,0.08339999999999925,0
mp-752538,KSnO2,2.1921,0
mp-21158,CeAlPd,0.0,0
mp-6259,SrLi2Ta2O7,2.1666,0
mp-1044366,TiZnNi(PO4)3,0.0,0
mp-775432,Li2V3TeO8,1.1921,0
mp-7735,Pr5(CoB3)2,0.0,0
mp-20289,NaInS2,1.9000999999999997,0
mp-754787,SmTlO3,0.8895,0
mp-28539,Rb3Mo15Se17,0.0,0
mp-13967,Nb5(CuSi)4,0.0,0
mp-676694,LiNbO3,2.9835000000000003,0
mp-24712,PH5NO3F,5.2949,0
mp-5599,U5Re5Si9,0.0,0
mp-693763,Al8P8H34N7O36F5,4.8724,0
mp-1009459,NbC,0.0,0
mp-675846,Ca5ThF14,4.84,0
mp-744710,CoPH3O5,0.1262,0
mp-867873,LiTm2Al,0.0,0
mp-633403,Cu3As4,0.0,0
mp-776642,Li2Fe3F8,3.1268,0
mp-772324,Li3MgNi3O8,0.238,0
mp-555899,Li2Si3O7,5.2253,0
mp-9390,ErCuGe,0.0,0
mp-558326,SiO2,5.587,0
mp-775991,CrCo3(PO4)4,0.5684,0
mp-3218,Er(SiPd)2,0.0,0
mp-604229,ZnH3CNO3,3.6736,0
mp-770552,Li4Ti2Cr3Ni3O16,0.3219999999999996,0
mp-11991,Nd2CdNi2,0.0,0
mp-614185,Pb(SN)2,1.1674000000000002,0
mp-557260,RbSb2F7,4.2682,0
mp-1008349,Co3Ni,0.0,0
mp-510728,MnCoH18(CN2)6,0.13129999999999997,0
mp-23975,NiH12C2(SN3)2,1.4359,0
mp-768990,Li7NbS6,2.3266,0
mp-18661,KY(PO3)4,5.328399999999999,0
mp-1044037,ZnFe3(P2O7)2,2.1894,0
mp-685006,Ta10O9,0.0,0
mp-1043503,MgCo(Si2O5)2,2.6466999999999996,0
mp-772255,CuPO3,1.8792000000000002,0
mp-776140,Li2MnV5O12,0.0,0
mp-559834,AgBTe4C(OF4)5,2.5132000000000003,0
mp-29496,Pd(SeBr3)2,1.3982,0
mp-37949,NdSiAg,0.0,0
mp-6494,K2Ca(CO3)2,4.3436,0
mp-780206,LiFePH2O5,3.3225,0
mp-721369,AlH12(OF)5,4.4686,0
mp-569017,PdI2,0.8733000000000002,0
mp-1030576,Te4Mo3W(SeS)2,0.0,0
mp-4538,TaSnS2,0.0,0
mp-541347,Er2Au5F21,1.7014999999999998,0
mp-1047801,MgP3W3O13,0.9504000000000001,0
mp-4697,Zn(CrSe2)2,0.044099999999999806,0
mp-6787,RbLiB4O7,4.8696,0
mp-15844,TaPO5,3.8263999999999996,0
mp-764318,Li2VFe(P2O7)2,1.7145,0
mp-555129,La3S3N,1.3357,0
mp-776768,Li4V5Fe3O16,0.6522000000000001,0
mp-776330,Li4Cu2C4SO16,0.0,0
mp-865796,LuCdRh2,0.0,0
mp-8884,ZnTe,1.1007000000000002,0
mp-720868,Ca2CdH24(ClO2)6,4.241899999999999,0
mp-697818,Sr2Pr2MnCuO8,0.0,0
mp-733650,CuH6(SeO4)2,0.2459,0
mp-11322,ZrSi,0.0,0
mp-863763,K2Y4Cu4Se9,0.7107999999999999,0
mp-1044464,CaPr(CuO3)2,0.0,0
mp-695277,BaLaTiCuO6,0.0,0
mp-505577,Dy3Ge5,0.0,0
mp-971763,ZnSb3,0.0,0
mp-9406,Li2La2Ti3O10,2.073899999999999,0
mp-1030458,Te2Mo3WS6,0.0,0
mp-15336,Sc2Cu2O5,0.0,0
mp-1019055,ReN2,0.0,0
mp-972082,Tl3Si,0.0,0
mp-10430,Nb5(NiP)4,0.0,0
mp-690544,Ga2FeO4,0.5741000000000005,0
mp-755856,Mg2SnO4,2.6408999999999994,0
mp-570769,CaInCu4,0.0,0
mp-867224,CaNdCd2,0.0,0
mp-6224,LiScSiO4,4.612299999999999,0
mp-780312,Li5(FeO2)4,1.0707,0
mp-541742,Cs3Mo2Cl9,1.0421,0
mp-647426,Cs2NpBr6,0.08689999999999998,0
mp-16291,NaZr2PdF11,0.0,0
mp-7938,KNbS2,0.8120000000000003,0
mp-705329,Li3Fe2(PO4)3,2.5284999999999997,0
mp-755980,SrCaI4,3.8183000000000002,0
mp-723378,KAlH6(OF3)2,6.9765999999999995,0
mp-1001600,HfB12,0.0,0
mp-23043,RbPb2Br5,3.0418000000000003,0
mp-782652,Li4Ti3Cr3(NiO8)2,0.9182999999999999,0
mp-20397,Sr(InTe2)2,0.8837999999999999,0
mp-542019,Np5Ge3,0.0,0
mp-641441,PbWO4,1.9524,0
mp-22661,InAg(PS3)2,1.1379000000000001,0
mp-4975,RbZnF3,4.0807,0
mp-554957,Te3I(OF5)3,1.9785,0
mp-3606,MnSiN2,0.5245999999999995,0
mp-557940,KNd(CO3)2,4.3598,0
mp-505133,Ta4Co2PdSe12,0.0,0
mp-30903,Ba3CrS5,0.0,0
mp-555594,ZnS,2.0252,0
mp-2085,PrCo2,0.0,0
mp-984700,CeY3,0.0,0
mp-1083,NpB2,0.0,0
mp-757042,LiSnPO4,3.0295,0
mp-4678,Zr2AlN,0.0,0
mp-558632,KNaSO4,4.9597,0
mp-16804,LiCaPO4,5.1799,0
mp-558227,K2RbMn2F7,2.9214,0
mp-557109,Na4Zr2(GeO4)3,3.7249999999999996,0
mp-9366,RbHoS2,2.3355000000000006,0
mp-614803,Cs2TeO3,3.5313000000000003,0
mp-974869,Rb3Nb,0.0,0
mp-5712,Cd2GeAs4,0.04079999999999995,0
mp-772261,LaAsO4,3.8186,0
mp-3931,SmSF,1.2296999999999998,0
mp-3464,FeSiRu2,0.0,0
mp-778369,V3OF11,1.5402,0
mp-1047836,CaMn4O9,0.0,0
mp-1043760,Si4WO10,3.5973000000000006,0
mp-673678,Ba2In2O5,0.0,0
mp-30712,Sm2Zn17,0.0,0
mp-766433,Sr3Li4Nb6O20,1.1984,0
mp-768959,Na4Sb2C4SO16,2.0394,0
mp-777268,Na(BiO2)2,0.0,0
mp-974938,Rb3Li,0.0,0
mp-27709,Bi6Br7,1.4121000000000001,0
mp-721171,CsMgH12(ClO2)3,4.9182,0
mp-31484,K4GaAu8,0.0,0
mp-677392,Yb2Ce8O19,0.0,0
mp-754462,SbTe2F6,0.9942999999999997,0
mp-1042540,TiZnAs2O7,2.7883999999999998,0
mp-989528,Rb2AlInH6,0.1400999999999999,0
mp-761151,Zr6O11,0.3600000000000003,0
mp-2126,HfIr3,0.0,0
mp-554294,Na7SnS3(O4F)3,4.990600000000001,0
mp-695984,BaRe2H2O9,3.8947000000000003,0
mp-561397,SO3,5.1414,0
mp-1023934,MoSe2,1.4317,0
mp-865359,Tm2MgIn,0.0,0
mp-569124,MnH12C2(NCl2)2,1.5219,0
mp-776733,Li3VF6,2.5067,0
mp-21401,TbSnPd,0.0,0
mp-780300,Li2VP4(H2O3)6,2.6006,0
mp-773055,Li3Mg3Ti6O16,0.0,0
mp-27205,TlCl2,2.2405,0
mp-729903,ZnInH14O7F5,4.1099,0
mp-545481,Ca2Cu(BrO)2,0.0,0
mp-552663,LiScAs2O7,3.4518999999999997,0
mp-643066,ZnH2SO5,4.2653,0
mp-27261,Ba7(BIr)12,0.0,0
mp-1027383,Te4Mo3WS4,0.0,0
mp-555779,ZnS,2.0195,0
mp-770598,Li2CoH8(CO5)2,3.0362,0
mp-15751,Ba3Y4O9,3.4394000000000005,0
mp-14105,AlTlO2,2.1963000000000004,0
mp-580631,Cs2KTbCl6,5.0878,0
mp-10964,CeB2Ir2C,0.0,0
mp-22598,In2O3,0.9324000000000003,0
mp-975190,RbTeO3,0.0,0
mp-715333,Fe7O8,1.0723000000000003,0
mp-1047200,VZn2WO6,0.6469000000000005,0
mp-770576,FeH12(SO7)2,0.02660000000000018,0
mp-31443,Li2InIr,0.0,0
mp-5841,RbCuC2,1.8853,0
mp-1047339,Zn(SbO2)2,0.24219999999999953,0
mp-542601,Yb3Se4,0.0,0
mp-778882,Li8Mn5Fe3(BO3)8,0.06500000000000039,0
mp-17090,SrTlPS4,2.0933000000000006,0
mp-2120,HoAg2,0.0,0
mp-27873,Ta2O,0.0,0
mp-567967,LiGaI4,2.5201,0
mp-4710,Hg3(BO3)2,2.6125,0
mp-555587,K2SmP2S7,2.2237999999999998,0
mp-695948,PH4SNO2,4.1913,0
mp-28582,CsB3H8,5.9585,0
mp-14535,In(PO3)3,4.3968,0
mp-648833,K2IrCBr5O,1.815,0
mp-570326,CsCrCl3,0.0,0
mp-4044,ErAgSe2,1.2832999999999997,0
mp-36033,PrOF,5.1636999999999995,0
mp-14237,YbBO3,0.0,0
mp-746670,CoH22C3(N3O4)2,3.1475999999999997,0
mp-22619,NiP2,0.0,0
mp-778387,Ba5Y3F19,6.4176,0
mp-1845,CaBe13,0.0,0
mp-774317,Li3VP2H2O9,2.4006000000000003,0
mp-756288,Li3Cu4SnO8,0.0,0
mp-21068,CaIn2,0.0,0
mp-1043572,BiPO5,0.0,0
mp-976280,LiBr,4.9350000000000005,0
mp-23861,BaHCl,3.4827000000000004,0
mp-20115,Eu(SiPd)2,0.0,0
mp-1018747,LaSbTe,0.0,0
mp-645316,C7F3,1.4237999999999997,0
mp-768995,Ba2Y5Cl19,4.269299999999999,0
mp-772829,Ba6Li2Ti7(Sb3O14)3,0.0,0
mp-760457,YBO3,4.5918,0
mp-759169,Li2CuF6,0.0,0
mp-683918,RbC2N3,3.6271,0
mp-27628,Te3Cl2,1.3481999999999998,0
mp-14169,Li4UF8,0.33740000000000014,0
mp-18163,Cd4GeSe6,0.7534000000000001,0
mp-558475,K4Nb2S10O,1.5316999999999998,0
mp-770610,Li2AlCoO4,1.6853999999999998,0
mp-23866,H2SeO4,3.3830999999999998,0
mp-1044717,Ca(CuO2)2,0.0,0
mp-572271,Cs3P7Pb2O21,4.9376,0
mp-684692,IN3,0.0,0
mp-23659,Na4Ga3Si3BrO12,4.0513,0
mp-758496,LiTi(PO3)4,0.0,0
mp-542112,CaZrO3,3.2155,0
mp-29928,Na3Li3N2,0.0,0
mp-675424,Ba2P2O7,4.5725,0
mp-754352,Na3CuO2,1.1506000000000003,0
mp-775268,Li8Mn7Fe(BO3)8,2.9600000000000004,0
mp-1007922,CuI,0.9427000000000003,0
mp-755322,BaNa6O4,1.5878,0
mp-1045799,Co(PO3)4,0.0,0
mp-859799,Li9Si2Ni5O16,0.5968999999999998,0
mp-974951,Rb3Hg,0.0,0
mp-1008903,MgAgSb,0.0,0
mp-1866,KO2,0.0,0
mp-989560,Cs2TlSiH6,0.0,0
mp-989196,SbClO,1.8527000000000005,0
mp-30568,Zn13Co,0.0,0
mp-39684,GdTiCdSbO7,2.3292,0
mp-973265,K3Zr,0.0,0
mp-568055,Nd(PRu)2,0.0,0
mp-779920,Gd2W2O9,1.8332000000000002,0
mp-764938,Li3Fe8(BO3)8,1.7381999999999997,0
mp-14691,NaEr(PO3)4,5.5405,0
mp-559337,Nd7(S2Cl3)3,2.2068,0
mp-756106,TbCeO4,0.15639999999999965,0
mp-767737,Co9Cu3O16,0.0,0
mp-1014226,Zr3ZnN,0.0,0
mp-13065,Ho2O3,4.2394,0
mp-30533,KPt2S3,1.2689999999999997,0
mp-9018,LiCdPO4,3.2179,0
mp-15794,LiYSe2,1.5238999999999998,0
mp-989634,CaTcN3,1.4064999999999999,0
mp-703293,P5HC(NCl6)3,1.9789000000000003,0
mp-973133,ScCuPd2,0.0,0
mp-981213,TbSmIr2,0.0,0
mp-556549,Bi2O3,2.2745,0
mp-570553,FeP4,0.8043000000000005,0
mp-616575,MnB,0.0,0
mp-569751,AlPH8(CCl2)2,5.4006,0
mp-565428,Mn4Bi3NO15,0.8880999999999997,0
mp-720334,Na2P2H14O13,5.1678,0
mp-972507,Yb2Co2O5,0.0,0
mp-743579,SrCoBiRuO6,0.0,0
mp-977059,MgPd5,0.0,0
mp-6446,Ba3La2(BO3)4,4.0127,0
mp-28014,H5BrO2,4.3774,0
mp-567366,CsCuCl3,0.0,0
mp-30684,Zr3Ga2,0.0,0
mp-636599,FeSnRu2,0.0,0
mp-28227,Ni11As8,0.0,0
mp-775212,MnV2(PO4)3,0.0,0
mp-558285,GaBiO3,1.8781999999999996,0
mp-759650,Li3Bi3(PO4)4,3.0989,0
mp-541687,K3GaSe3,2.0865,0
mp-3374,Nd4Au2O9,1.9966,0
mp-30452,DyNiBi,0.21359999999999957,0
mp-11953,RbHg11,0.0,0
mp-600038,SiO2,5.4989,0
mp-1046562,Mg(Cu2O3)2,0.0,0
mp-762329,Li7Sb2P7O24,4.0418,0
mp-776765,V3CrSn2(PO4)6,0.0,0
mp-836,TbZn,0.0,0
mp-754052,Li3(Fe2S3)2,0.0,0
mp-973434,Hf2IrRu,0.0,0
mp-753279,LiAg5F12,0.0,0
mp-867966,Eu2SiO5,0.0,0
mp-25208,BiO2,0.0,0
mp-557656,RbNaSi2O5,4.4435,0
mp-775748,Li4Cr3Fe2Sn3O16,0.738,0
mp-4911,Th(CuGe)2,0.0,0
mp-7198,SrPSe3,2.1332999999999998,0
mp-754182,TbZr4O10,0.0,0
mp-20590,La3InB,0.0,0
mp-17283,K3NbSe4,1.8249,0
mp-604970,GaSi4H30C10Cl,3.8651,0
mp-23151,Na4BeAlSi4ClO12,4.6318,0
mp-761936,Li4Cu7(PO4)6,0.0,0
mp-740719,Ba3In2(HO)12,3.2603,0
mp-707874,Ba7Cu3H17,1.4593999999999998,0
mp-772416,Li2Ti3Sn(PO4)6,2.5061,0
mp-556882,SiO2,5.6423,0
mp-982045,YbB4Ru,0.0,0
mp-19868,ThAs,0.0,0
mp-974451,K2Al2O3F2,4.0212,0
mp-865872,LiZr2Re,0.0,0
mp-570971,Sr3Ga3N5,1.3625000000000003,0
mp-505306,Eu2Sn2O7,0.0,0
mp-21391,InAs,0.0,0
mp-1017447,HgGeO3,0.0,0
mp-1042291,WO2,1.7673999999999999,0
mp-752605,LiAgF3,0.32889999999999997,0
mp-767398,Gd3AsO7,2.0907,0
mp-11296,ErCd2,0.0,0
mp-775184,Sc2(PO4)3,0.0,0
mp-1018663,CeS2,0.0,0
mp-2553,HfBe2,0.0,0
mp-558796,Ag(Bi2S3)3,0.0,0
mp-568895,BaSbAu,0.0,0
mp-585949,CaCu,0.0,0
mp-510592,Tb5CoSb2,0.0,0
mp-769469,NaMnPCO7,0.6396999999999999,0
mp-757360,HgTe(HO)7,2.6766,0
mp-12764,SmC2,0.0,0
mp-19267,BaMnO3,2.0603,0
mp-2782,ZnP2,1.4620000000000002,0
mp-4056,CaSc2O4,3.4579999999999997,0
mp-19114,Ca2NiWO6,3.2941,0
mp-28721,Pt(SCl4)2,1.9113,0
mp-995224,CO2,5.2707,0
mp-605650,Ba5Ga5Pb,0.0,0
mp-768068,Li2MnFe3O8,0.0,0
mp-635469,CeCuSO,0.0,0
mp-977418,LiMgAu2,0.0,0
mp-7926,TaSe2,0.0,0
mp-14935,P3RhO9,1.8079999999999998,0
mp-769322,MgSO3,4.8986,0
mp-13134,Ga2O3,1.1942,0
mp-2028,Be2Nb,0.0,0
mp-697840,Ba3La7Ti3Cr7O30,1.7675999999999998,0
mp-505172,NaZrCuSe3,0.30420000000000025,0
mp-644097,BaAlH5,2.7537,0
mp-1030700,Te2MoWSeS,0.1368999999999998,0
mp-557994,Ba3Sc(BO2)9,5.2789,0
mp-569471,UB2C,0.0,0
mp-768800,Ho2(SO4)3,5.8704,0
mp-10326,Zn(ReO4)2,3.9894,0
mp-14344,Yb2(NiB2)3,0.0,0
mp-9673,K2NiAs2,0.08009999999999984,0
mp-27830,Cs2SeCl6,2.7535,0
mp-20027,FeP2,0.4338999999999995,0
mp-561160,NbP4(S2Cl)5,1.1953,0
mp-36305,Pr2UTe4,0.0,0
mp-972320,UNiB4,0.0,0
mp-4104,HoPO4,5.9209,0
mp-640080,FeSiGe,0.30520000000000014,0
mp-626074,Al(HO)3,4.614999999999999,0
mp-865588,Y2CuRu,0.0,0
mp-27829,Rb2SeCl6,2.6051,0
mp-752433,LiLa3Ti4O12,0.0,0
mp-779453,BaNa6O4,1.6481999999999999,0
mp-12700,NbPt3,0.0,0
mp-30965,NaClO2,2.409,0
mp-974430,Re3Ir,0.0,0
mp-975665,Nd(Ge3Pt)4,0.0,0
mp-24445,Nd2H16S3O20,5.4556,0
mp-572903,CsCu2F5,0.0,0
mp-550908,SrHfO3,3.6761000000000004,0
mp-569557,Dy3CuSiSe7,1.5191999999999997,0
mp-558500,K2Ag2GeS4,1.4068000000000003,0
mp-559747,La2Ti2SiO9,2.6201,0
mp-973883,Ge3Rh,0.0,0
mp-642737,Cu2H3ClO3,0.0,0
mp-30422,Sr7Au3,0.0,0
mp-571548,SbH16C4N2Cl5,3.2333000000000003,0
mp-556423,Na2Si2O5,4.4498,0
mp-772464,Li4Cr3Fe5O16,0.0,0
mp-769052,Bi4(BO4)3,0.0,0
mp-754354,Ba4OF6,3.6156,0
mp-30483,CaZn,0.0,0
mp-13405,Lu(MnGe)2,0.0,0
mp-1019322,Te2W,0.9395999999999995,0
mp-556192,C4O5F6,5.3178,0
mp-778748,Li3FeBO4,3.0694000000000004,0
mp-1042464,BaAlFeCuO5,0.0,0
mp-772771,La4(B2O5)3,4.555999999999999,0
mp-772886,BaLa2Cl8,3.9733,0
mp-744239,Fe5P4(H3O10)2,1.4431000000000003,0
mp-3109,UGeTe,0.0,0
mp-561502,Ba8B5N10F,2.2163,0
mp-15254,Li3AlF6,7.688400000000001,0
mp-22041,HoGeRu,0.0,0
mp-974861,Mn2Co2O5,0.0,0
mp-22403,Co(C2N3)2,0.0,0
mp-4052,Rb2Mn3Se4,0.4188000000000003,0
mp-1043556,SbPO5,2.2165,0
mp-541995,LaSiO3F,4.5981000000000005,0
mp-567486,BaSr2(PN2)6,4.1542,0
mp-989519,Cs2RbNF6,2.9602,0
mp-554602,Rb2PdN2(ClO2)2,1.698,0
mp-705331,LiNiP2O7,0.29269999999999996,0
mp-1042729,ZnCu3(BiO3)4,0.0,0
mp-2663,Nb3Pt,0.0,0
mp-10341,SrGeTeO6,2.9532,0
mp-11231,YAl3,0.0,0
mp-974948,Rb3In,0.0,0
mp-977367,CdInRh2,0.0,0
mp-1002081,KNaICl,4.0086,0
mp-567185,SnHg6(As2Br3)2,1.3643,0
mp-761169,Zn2Hg2H2S2O11,1.9089,0
mp-19483,TmFeGe2O7,2.5789,0
mp-972235,Tb3FeB7,0.0,0
mp-557664,Cs2TlBiF6,3.0672999999999995,0
mp-1319,ZrTe,0.0,0
mp-2666,CrSb2,0.0,0
mp-1044639,Fe(GeO3)2,0.0632,0
mp-18255,RbSm(PO3)4,5.2964,0
mp-568782,Dy(PPt4)2,0.0,0
mp-15954,As2Rh,0.23749999999999982,0
mp-607931,Cs3NaLi2(BO3)2,3.4539999999999997,0
mp-1022729,Na2H6Ir,0.0,0
mp-28510,Li3BiO3,2.4379,0
mp-768814,Y2GeO5,3.3975999999999997,0
mp-1019735,BaNaEu(SiO3)3,0.0024999999999999467,0
mp-554355,CaF2,5.1324,0