mp_id,formula,band_gap,fidelity
mp-50,Ta,0.0,0
mp-735597,K4H4WC8(N4O)2,3.0212,0
mp-11342,GaSe,1.2233,0
mp-1010161,DyAs,0.0,0
mp-12696,YMgPd,0.0,0
mp-759095,LiSn2P4H3O16,3.3251000000000004,0
mp-15833,Zn4P6SN12,4.092599999999999,0
mp-21077,LaNiGe2,0.0,0
mp-540750,CsNb(PO4)2,3.2732,0
mp-541280,BaLaGaO4,3.9475,0
mp-647096,Gd3S3N,1.0476,0
mp-607725,Ce(PPt2)2,0.0,0
mp-684617,Bi2O3,0.9627999999999997,0
mp-555955,LaSeO3F,3.7498,0
mp-1018892,PrCoSi,0.0,0
mp-10961,La5Si3,0.0,0
mp-30527,TaS3,0.0,0
mp-559243,Nd2Ta2Cl2O7,3.0798,0
mp-674492,Na2U2O7,1.5831999999999997,0
mp-12956,Yb(FeP3)4,0.0,0
mp-3895,Ho(SiRh)2,0.0,0
mp-861965,Ho2RuRh,0.0,0
mp-770559,Dy2WO6,3.623,0
mp-672372,K2S5,1.1703,0
mp-631296,KHfNi,0.0,0
mp-859121,Sb16Cl4O21,1.3710000000000004,0
mp-768770,Mg(ReO4)2,3.8744,0
mp-560965,K4Mn(AsS4)2,1.0475,0
mp-1018669,CeTlZn,0.0,0
mp-995200,HC3,0.0,0
mp-776762,LiVF5,1.9967000000000001,0
mp-684804,MgC2S2(OF3)2,2.2023,0
mp-555151,ZnS,2.0244999999999997,0
mp-646824,Ca3Ag8,0.0,0
mp-1013898,LiMo3P3O13,1.1762000000000001,0
mp-974464,ReH3,0.0,0
mp-510041,Hf2Ni2Sn,0.0,0
mp-23648,Li4Al3Si3ClO12,5.2612000000000005,0
mp-1009543,DyBiPd,0.0,0
mp-977119,Li3Be,0.0,0
mp-706524,Sr3La4O9,2.4813,0
mp-757,Li3As,0.6364999999999998,0
mp-4558,Li4GeO4,4.0961,0
mp-638270,Mn3O4,0.0,0
mp-557993,BiO2,1.1596000000000002,0
mp-18313,SrSiO3,4.3766,0
mp-29129,K2Te2O5,3.4082000000000003,0
mp-754701,CaTiO3,3.5705999999999998,0
mp-22660,InAgO2,0.21189999999999998,0
mp-2132,CrN,0.0,0
mp-925,VN,0.0,0
mp-769598,La4MnO8,1.2887000000000004,0
mp-10963,Ag2SnHgSe4,0.0008000000000001339,0
mp-863696,Pm2MgSi,0.0,0
mp-866155,TiAlRu2,0.0,0
mp-768969,Bi3B7O12,0.4014999999999995,0
mp-863944,Ba5V5O14,0.7356000000000003,0
mp-675067,Sm2ZnS4,1.3771,0
mp-770997,Li2HfO3,4.1189,0
mp-18079,BaLaCuS3,1.1070000000000002,0
mp-18984,Na2ZrNi(P2O7)2,3.7889999999999997,0
mp-769604,K2MnPCO7,1.0999,0
mp-753519,CuPO4,0.0,0
mp-561346,Na2ZrGeO5,3.4539,0
mp-761827,Na3CuO3,1.1698,0
mp-1021522,VO2,0.9384999999999999,0
mp-1029903,LiNbN2,1.1417000000000002,0
mp-1046491,Ba2Mg2Tl2Co3O10,0.0,0
mp-696678,PH2NO2,0.0,0
mp-1153,Li2S,3.3862000000000005,0
mp-23193,KCl,5.027,0
mp-861394,Li2Si2NiO6,3.7537000000000003,0
mp-569879,Cs2Ta6PbCl18,1.4561000000000002,0
mp-2500,AlCu,0.0,0
mp-11396,NdGa2Ni,0.0,0
mp-569382,Nd3Ga,0.0,0
mp-540747,Nb3SiNi2,0.0,0
mp-12922,NdPIr,0.0,0
mp-764385,Li4Fe3Cu3(SbO8)2,0.0,0
mp-865043,MgInPd2,0.0,0
mp-769345,Ho3ReO8,1.7189000000000005,0
mp-4563,Ti3TlC,0.0,0
mp-5163,LaRhO3,0.5939999999999994,0
mp-34284,NaNdF4,7.206099999999999,0
mp-756647,K2YPCO7,4.4412,0
mp-865586,VGaRu2,0.0,0
mp-1048278,ZnNiP2O7,3.867,0
mp-1042250,Mg(SbO2)2,2.5885,0
mp-684907,U12O19,0.0,0
mp-865464,PmSi3,0.0,0
mp-9828,YbPPt,0.0,0
mp-743640,Li3La8Ti9Cr3O36,1.2976,0
mp-16445,CsSm2CuSe4,0.8770000000000002,0
mp-34380,HoTaO4,1.5885000000000007,0
mp-631390,SrZrZn,0.0,0
mp-541298,KHfH2OF5,6.6561,0
mp-766047,K5Li3Ti8(AsO5)8,3.0181,0
mp-16496,Al(CuRe)2,0.0,0
mp-30459,ScNiBi,0.18440000000000012,0
mp-1677,Be2Mo,0.0,0
mp-570528,Li2GaIr,0.0,0
mp-758996,Zn5P6H22(NO11)2,4.9833,0
mp-890,NdIr2,0.0,0
mp-22356,In2HgS4,0.34830000000000005,0
mp-972087,ZrH3,0.0,0
mp-884,NdSi2,0.0,0
mp-1043932,LaMgFeAgO6,0.07800000000000029,0
mp-541883,Tb3Ni13B2,0.0,0
mp-1049213,CaSn2P2O9,1.1226000000000003,0
mp-769310,SiBi2O5,2.6223,0
mp-638048,Mo9Se11,0.0,0
mp-24103,CuH12Br4(NO)2,0.4456,0
mp-997048,AgBrO2,0.27669999999999995,0
mp-647169,C10F3,2.1935,0
mp-764057,VO2F,1.6388,0
mp-541062,Ca3GaAs3,0.33299999999999974,0
mp-20162,InAgS2,0.10819999999999919,0
mp-28087,Pb4IF7,2.9146,0
mp-1001022,Cu2PPd2,0.0,0
mp-1042973,ZnSb2O5,0.0,0
mp-865888,TiSnRu2,0.0,0
mp-570388,H8C2NCl,5.3861,0
mp-9835,CoSb2,0.0,0
mp-867175,SmAgAs2,0.0,0
mp-755031,KPrPCO7,0.10989999999999989,0
mp-23305,EuI2,1.3090000000000002,0
mp-15740,SrZn2(AsO4)2,2.8662,0
mp-23212,CuBr,0.16990000000000016,0
mp-767833,MnFe(PO4)2,0.38429999999999986,0
mp-24405,LiCd4Ge5HO15,1.8714,0
mp-638900,Si3O7,0.10310000000000041,0
mp-570146,ZnSi4As2(H3C)12,2.7615999999999996,0
mp-556414,CsTmSeCl2O3,4.3558,0
mp-554532,K2TeClF5,4.4512,0
mp-1028586,Te2W,0.6218000000000004,0
mp-29370,Na3BP2,1.8441999999999998,0
mp-762371,NbOF3,3.9131,0
mp-978525,Si3Mo,0.0,0
mp-976595,LiLu2In,0.0,0
mp-979912,Yb5Sn3,0.0,0
mp-9307,Ba2ZnN2,0.4796999999999998,0
mp-865795,LiSc2Ru,0.0,0
mp-560235,K9Sm3Si12(O16F)2,4.5766,0
mp-675056,Na3(TiS2)10,0.0,0
mp-865014,Mg2Cu,0.0,0
mp-768207,Li2SbPCO7,3.2196000000000002,0
mp-722527,AlH11SO10,5.3941,0
mp-637112,AsS7IF6,1.8164,0
mp-542831,Gd2SiO5,3.0252000000000003,0
mp-27948,Ge(BiTe2)2,0.8887,0
mp-559575,AsSe(IF2)3,1.3837,0
mp-862432,Sc2AgIr,0.0,0
mp-30417,SmAu3,0.0,0
mp-985558,Ce2US5,0.0,0
mp-31259,Bi(IO3)3,2.8849,0
mp-863403,LiNbP2O7,0.2610000000000001,0
mp-569366,Nb3Tl,0.0,0
mp-568505,As4C3,0.0,0
mp-979265,Ta2CN3,0.0,0
mp-570679,TaI5,1.1727,0
mp-561370,S,2.362,0
mp-567840,Tm(CuGe)2,0.0,0
mp-972633,SmErRu2,0.0,0
mp-560626,Ba2Ni7F18,4.8408,0
mp-2410,SrAg5,0.0,0
mp-571379,InGa2Cl7,3.832,0
mp-866650,La2Si4CN6,2.3360000000000003,0
mp-4993,TbSi2Ni,0.0,0
mp-770527,Li2Mn4O9,0.2549999999999999,0
mp-776747,V3Fe2Te(PO4)6,0.010600000000000165,0
mp-570022,Ho5Co2Bi,0.0,0
mp-983607,V3Cd,0.0,0
mp-7224,ThC2,0.0,0
mp-864598,LiMg2Ag,0.0,0
mp-770900,NaMnAsCO7,1.0809,0
mp-30893,Sr4Bi3,0.0,0
mp-632822,Li5B4,0.0,0
mp-24312,Sr(H9O5)2,4.9945,0
mp-772748,Ba2P6O17,5.254700000000001,0
mp-673814,La3U2O10,0.13170000000000126,0
mp-22251,TbGaPt,0.0,0
mp-780301,Mn6OF11,0.1977,0
mp-862609,ScReTc2,0.0,0
mp-22466,SrIn4,0.0,0
mp-754660,LiFeS2,0.0,0
mp-570692,In5B4Ir9,0.0,0
mp-781961,LiCrPH2O5,2.6737,0
mp-7116,Nb3CoS6,0.0,0
mp-674352,TaAg7S6,0.3199000000000001,0
mp-569047,SmTlPd,0.0,0
mp-767798,Ni17(AsO4)12,0.0,0
mp-30086,GeCl4,4.1254,0
mp-20710,CeSiNi,0.0,0
mp-585516,Ca3Si2O7,4.6202000000000005,0
mp-772523,Ba8LiTa7O24,0.0,0
mp-1041160,Ti3ZnP3O13,0.0,0
mp-18501,Ba(AgTe)2,0.6732999999999998,0
mp-31229,Na4(BSe)9,2.206,0
mp-989619,LaTcN3,0.0,0
mp-17960,BaSm2O4,3.1428000000000003,0
mp-11945,SmAl4Ni,0.0,0
mp-20824,Sr2CaTlCu2O7,0.0,0
mp-542081,K2LaP2S7,2.2583,0
mp-622020,P(CN)3,4.4681,0
mp-771580,Li4Fe3TeO8,0.8782999999999994,0
mp-20799,Er2ReC2,0.0,0
mp-769938,TbPrO4,0.0,0
mp-707958,PH9C2N4O5,4.9033,0
mp-999298,Pd3Au,0.0,0
mp-571527,Cs2LiInCl6,3.2276,0
mp-570597,La2GeI2,0.367,0
mp-757306,LiCu(PO3)4,0.5950000000000001,0
mp-16523,Al3Pd5,0.0,0
mp-22628,CsNO3,3.0696,0
mp-4428,CaSiO3,4.726,0
mp-28656,Tl5(Cu7Se5)2,0.0,0
mp-33319,Pr3NF6,3.3097000000000003,0
mp-1388,DyRh2,0.0,0
mp-774395,Fe10O11F9,0.0,0
mp-14921,Zn4B6SeO12,1.8571,0
mp-864971,MnSnRu2,0.0,0
mp-626014,H5IO6,0.9650000000000001,0
mp-16521,Al3Os2,0.0,0
mp-1042687,ZnCu3(SbO3)4,0.0,0
mp-3084,Sc2Ni12P7,0.0,0
mp-765358,Li3VOF5,2.7786,0
mp-757375,Ti2Sn3O10,1.7265999999999995,0
mp-677283,Sr4NdNb2Al3O15,2.5183,0
mp-32662,WO3,1.4956,0
mp-648984,LaSiAs3,0.0,0
mp-675106,TmPaO4,3.203199999999999,0
mp-973788,Ho2CuTc,0.0,0
mp-7394,BaAg2GeS4,0.5888,0
mp-10699,LuRh3C,0.0,0
mp-776053,Li2TiMn2O6,1.5566,0
mp-532768,YZr5Si5PO24,3.9082,0
mp-862287,BeAlRh2,0.0,0
mp-755698,HfP2O7,5.3149,0
mp-554025,SNF,4.0441,0
mp-1041477,Mn2ZnO4,0.6234000000000002,0
mp-695929,Cs3B6H12S4Br,4.9166,0
mp-1649,Fe3Pt,0.0,0
mp-605659,HgH24C8(I2N)2,2.5974,0
mp-1030520,MoW3(SeS3)2,0.6825000000000001,0
mp-738718,Na5P3H48C4N(O9F)3,4.4658,0
mp-972036,WN,0.0,0
mp-29977,Rb3BS3,2.5462000000000002,0
mp-1018032,SrCdO2,0.018199999999999994,0
mp-976256,Li3Mg,0.0,0
mp-705301,LiCoP2O7,1.2293,0
mp-684027,Mg3(MnAl9)2,0.0,0
mp-571605,CdI2,2.3857,0
mp-972367,UAlO3,0.0,0
mp-8289,SnF3,2.7195,0
mp-8282,Ti2N,0.0,0
mp-779095,Mn3OF5,0.0,0
mp-19741,CeNiC2,0.0,0
mp-555516,H5(NO)3,3.2338,0
mp-1019737,KEu(PO3)4,0.0,0
mp-7424,BPd2,0.0,0
mp-777904,Li2Ti3CrO8,0.0,0
mp-9511,K2AsAuS4,0.9864999999999999,0
mp-779300,LiFe2OF5,2.2825,0
mp-980387,DyYIr2,0.0,0
mp-20969,NpSb,0.0,0
mp-1027524,Mo3W(SeS)4,0.7110000000000003,0
mp-550498,Li4CO4,4.6576,0
mp-29501,Rb3AsSe16,0.9102999999999999,0
mp-980386,Yb2Nd2O5,0.18689999999999984,0
mp-775460,Li2CrFe3O8,0.0,0
mp-4812,Zn4B6O13,3.4078000000000004,0
mp-34680,SrNd5S8,0.0,0
mp-3337,Ti6Si7Ni16,0.0,0
mp-546202,Li4CO4,4.177,0
mp-28955,Mg3BN3,1.3798,0
mp-13172,YMgCu4,0.0,0
mp-757070,BaCaI4,3.0153999999999996,0
mp-18303,Nd3CuSnSe7,1.1974,0
mp-865147,Be2CuRu,0.0,0
mp-13126,ZrN,0.0,0
mp-39003,Mg3Al14O24,4.311599999999999,0
mp-560407,KNbSi2O7,3.431,0
mp-38818,HfNbB4,0.0,0
mp-18702,AgPO3,2.0246000000000004,0
mp-22745,Co9Se8,0.0,0
mp-552674,ZrTaNO,0.0,0
mp-30295,W6CCl18,1.1546,0
mp-1008901,MgH2,0.0,0
mp-11234,PrMg2Ag,0.0,0
mp-631534,NaSrRe2,0.0,0
mp-771916,Li2NiH8(CO5)2,4.4007,0
mp-28931,Ga2TeO6,0.7341000000000006,0
mp-8761,NdCoC2,0.0,0
mp-542152,P2Pb3O8,3.5298000000000003,0
mp-691,SnSe,0.5159000000000002,0
mp-675830,FeCu5S4,0.0,0
mp-772552,Li6CrO4,1.8237,0
mp-561124,Ho3Se4O12F,3.7086,0
mp-4441,Ca(CuGe)2,0.0,0
mp-771647,La2Pt2O7,0.4388000000000005,0
mp-695963,K2NaH10IO10,2.5046,0
mp-18529,Tm2S3,2.2738000000000005,0
mp-6078,Na2Cd3Si3O10,2.4467999999999996,0
mp-765499,Li3VF6,2.4358,0
mp-863716,Pm2IrPd,0.0,0
mp-1028762,TeW2Se3,0.10650000000000004,0
mp-1014297,C3N,0.0,0
mp-679969,PCN2Cl3,3.6218,0
mp-1047088,VZn2IrO6,0.2539000000000007,0
mp-753973,LiSnP2O7,0.0,0
mp-24398,AlP(H2O3)2,5.408099999999999,0
mp-27630,CrCl3,1.4075,0
mp-21318,PtPb2,0.0,0
mp-5605,Ce(SiAg)2,0.0,0
mp-30141,Be(N3O7)2,1.2844000000000002,0
mp-691091,Na2Al2Si3(HO3)4,2.8882999999999996,0
mp-865100,NaInHg2,0.0,0
mp-569264,NdIr5,0.0,0
mp-975292,RbMoO3,0.0,0
mp-2825,ErPd3,0.0,0
mp-570899,YbNi2Sn,0.0,0
mp-773204,Li4Cr5Fe3O16,0.0,0
mp-1851,SnPd2,0.0,0
mp-9775,NaSrAs,0.8077000000000001,0
mp-777945,TiMn4O10,1.4752999999999998,0
mp-559637,Dy(IO3)3,3.4305999999999996,0
mp-22952,CeClO,0.0,0
mp-31104,KBi,0.4058999999999999,0
mp-549475,TbBi2BrO4,1.2894,0
mp-972046,Yb2HgBi,0.0,0
mp-13252,SnB4O7,3.5712,0
mp-567710,KPr3Te8,0.46750000000000025,0
mp-5336,Sn(Mo3S4)2,0.0,0
mp-7192,Sc2Sb,0.0,0
mp-763174,Li2VO2F,1.7722000000000002,0
mp-8998,TaNiTe5,0.0,0
mp-30034,MgBr2,4.4707,0
mp-22464,NaO3,0.5780000000000001,0
mp-774361,Li2Mn3F8,3.5244,0
mp-858,TmAl2,0.0,0
mp-1018696,EuCdPb,0.0,0
mp-34322,Dy2Ti2O7,2.7197,0
mp-15905,Rb2Mo9S11,0.0,0
mp-778446,Cr2(PS4)3,0.0,0
mp-851029,Li4Ti3Ni3(SnO8)2,0.5354999999999999,0
mp-554302,Cs2NaMnF6,0.0,0
mp-1641,CrSb,0.0,0
mp-558240,K3Al4P2O8F9,5.456,0
mp-1020591,Rb8NO3,0.0,0
mp-561481,Ba5Ru2ClO9,0.0,0
mp-601,PrP,0.0,0
mp-20127,NpAsSe,0.0,0
mp-30701,Sc3(Ga3Fe)2,0.0,0
mp-571568,CdI2,2.3543000000000003,0
mp-10008,Ca7Ge,0.0,0
mp-675215,Mg2SiO4,3.4299999999999997,0
mp-1029852,RbMoN2,0.0,0
mp-763176,Mn3(O2F)2,0.06800000000000006,0
mp-19516,Al2(WO4)3,4.5569,0
mp-581805,Ni3Mo3N,0.0,0
mp-601861,RbInS2,2.0972,0
mp-772495,Na2SnAsCO7,0.0,0
mp-776097,HfO2,4.1383,0
mp-561089,Ba3LaIr2O9,0.0,0
mp-556995,Nd2O3,3.6365,0
mp-13221,NdMg2Cu9,0.0,0
mp-755840,Nb2SbO6,0.0,0
mp-26114,Ti(PO3)4,2.7702999999999998,0
mp-22595,UAsSe,0.0,0
mp-1041631,Mg(CuO2)2,0.3798999999999997,0
mp-554577,Li4P2O7,5.650799999999999,0
mp-20905,OsS2,0.0,0
mp-697957,ZnH8C2I2(N2O)2,1.8638,0
mp-22841,Ba2In2S5,1.9866000000000001,0
mp-7430,Ca(CdSb)2,0.10569999999999968,0
mp-781646,Tb2TiO5,3.1632999999999996,0
mp-1018829,NpTe2,0.0,0
mp-1045114,AlV3Se2ClO8,1.2699000000000003,0
mp-755316,Dy2Sb2O7,0.0,0
mp-559000,SbSe6IF6,1.5285,0
mp-707175,BeH6(NF2)2,7.2018,0
mp-773197,Li2Cr4O13,1.4047,0
mp-8198,Rb3Cu5O4,1.5344999999999998,0
mp-767773,Li4V3Fe3(TeO8)2,1.3483000000000005,0
mp-555090,LiBS4(ClO3)4,4.6226,0
mp-2455,As2Os,0.6546000000000003,0
mp-36843,Mn2NiO4,0.0,0
mp-15932,SmCrS3,0.0,0
mp-556143,Na3Ga3(TeO6)2,1.8466,0
mp-10382,KEuPSe4,0.0,0
mp-1042494,BaAlCoCuO5,0.0,0
mp-755057,Rb2PrO3,0.0,0
mp-1007906,ErH,0.0,0
mp-542598,Li22Si5,0.0,0
mp-720719,Ca2Y2Si4H2CO16,5.1278,0
mp-5748,HfAlNi2,0.0,0
mp-8778,Sm2Au5F21,1.7612999999999999,0
mp-552552,Na4CO4,1.5496,0
mp-28102,Ba3Te4O11,3.2308999999999997,0
mp-505436,CuP4O11,0.5740000000000001,0
mp-865176,HfCu3,0.0,0
mp-1048604,YTi3Se2ClO8,1.1077999999999997,0
mp-1046246,Ca2Ta2FeO8,3.4090000000000003,0
mp-775892,Ti3MnSb2(PO4)6,0.0,0
mp-1026916,MoSeS,0.6076999999999999,0
mp-768483,Lu3Sb5O12,3.1058000000000003,0
mp-1025705,Te2Mo(WSe2)2,0.04820000000000002,0
mp-4541,NaCuO2,0.4914000000000003,0
mp-541951,Zr3P3Pd4,0.0,0
mp-8377,TeO2,3.0604,0
mp-34579,Na3HfF7,6.2463999999999995,0
mp-675710,K2U2O7,1.6176,0
mp-1030295,Te3MoWSe,0.0051000000000001044,0
mp-1044413,ZnFeBiO5,0.14090000000000003,0
mp-12641,Ba2HoNbO6,2.8516,0
mp-568744,Ba2Cd3Bi4,0.0,0
mp-560386,In2Ag2GeS6,0.9558,0
mp-1027164,TeMoWSeS2,0.0,0
mp-770548,Na6Cr2P(CO4)4,0.0,0
mp-12003,Al9Ir2,0.0,0
mp-1061,PrPt2,0.0,0
mp-545719,SiO2,4.8294,0
mp-862896,PmCdRh2,0.0,0
mp-1012435,PbS,0.6898999999999997,0
mp-381,SiRu,0.0,0
mp-1029179,MoW(SeS)2,0.581,0
mp-5514,TbCuSi,0.0,0
mp-8341,NaGeSbO5,2.3243,0
mp-973325,Li2MgGe,0.0,0
mp-780479,LiV2P4(HO8)2,1.1173,0
mp-9437,NbFeSb,0.5137999999999998,0
mp-559476,Dy(IO3)3,3.5241,0
mp-1008986,IrN,0.0,0
mp-557936,Zn4Cu5(TeO6)3,0.0,0
mp-1041222,CaHoV2O6,1.0743,0
mp-561257,LiPr2C2N4F3,3.7057999999999995,0
mp-27919,Ti8C5,0.0,0
mp-997017,AgClO2,0.025400000000000006,0
mp-4364,NbGaCo2,0.0,0
mp-559767,LiAsO3,2.9408,0
mp-557059,RbSnS4,1.3253999999999997,0
mp-567822,Sr3In11,0.0,0
mp-9225,ScSiPt,0.0,0
mp-3213,LaMnSi2,0.0,0
mp-601210,H5C2NO4,3.0878,0
mp-554129,Br3N(O2F5)2,1.4972,0
mp-569486,Yb2Ag7,0.0,0
mp-865998,HfGaIr2,0.0,0
mp-540439,Mn(PO3)3,1.0507,0
mp-542164,CsTb2Ag3Se5,1.0943999999999998,0
mp-768095,KV13O20,0.5906999999999996,0
mp-24727,TmH2,0.0,0
mp-780121,Fe4O5F3,0.0,0
mp-866115,Be2PdRh,0.0,0
mp-7558,TaGe2,0.0,0
mp-29243,Ba3SnO,0.0,0
mp-975115,RbTcO4,3.2685,0
mp-560836,SiO2,4.9689,0
mp-11552,TiPt,0.0,0
mp-631358,SrTa2Mn,0.0,0
mp-770749,Li2Ti(BO3)2,2.8806,0
mp-1043389,NiP2WO9,2.2634000000000003,0
mp-773891,LiCuPO4,0.0,0
mp-1044928,LaMgCr2O6,0.5433000000000003,0
mp-753070,Sr3Rh2O7,0.0,0
mp-759825,BiOF,2.5742000000000003,0
mp-758427,Li2Cu3(CO3)3,0.058499999999999996,0
mp-20655,SmGeRu,0.0,0
mp-627944,Si4H2O9,5.1713000000000005,0
mp-849229,H5NO5,3.6226000000000003,0
mp-29147,MoCl5,0.0,0
mp-570542,LiTm2Cl5,0.15860000000000074,0
mp-995232,H6PbCBr3N,1.9688,0
mp-16043,Mg(As2Rh3)2,0.0,0
mp-30272,U2Al19Co6,0.0,0
mp-757142,LiNb(PO3)4,0.9699,0
mp-559586,BaNa2Nd2Si4CO15,4.8248,0
mp-762268,Li3V2O6,1.3016999999999999,0
mp-861587,Pr2In8Pd,0.0,0
mp-19502,BaTi18Mn3O38,0.0,0
mp-23058,NdClO,4.766400000000001,0
mp-973741,LiHo3,0.0,0
mp-555387,BaSi2(BO4)2,5.5233,0
mp-556822,Na2CuP2O7,0.6496999999999999,0
mp-1025663,MoW2(SeS2)2,0.7688000000000001,0
mp-12832,Ba3CaRu2O9,0.0,0
mp-1008600,ZrN2,0.0,0
mp-9634,Na3AgS2,2.1755,0
mp-977446,NdVGe3,0.0,0
mp-542067,Rb4Ti3S14,1.2236000000000002,0
mp-18741,RbLiCrO4,2.9916,0
mp-29588,Nd3(BN2)2,0.0,0
mp-627114,Si2H2O3,2.0746,0
mp-764796,Li3Fe8(BO3)8,1.6373,0
mp-631946,SnOs2Ru,0.0,0
mp-29458,Rb3Mo2Cl9,0.9456,0
mp-559692,Ta2Cd(P2O7)3,3.5606999999999998,0
mp-7790,Ti2N,0.0,0
mp-676556,Sm2Zr8O19,2.2727,0
mp-15651,NiSe,0.0,0
mp-862947,Ba2BiAu,0.4229000000000003,0
mp-29791,Nd4PdO7,1.0861,0
mp-585418,Fe(PO3)4,0.008599999999999941,0
mp-554320,P2Pd2O7,0.7162999999999999,0
mp-6140,PrNi2B2C,0.0,0
mp-1045429,Y(CoS2)2,0.0,0
mp-1029147,Te2MoW3(Se2S)2,0.0,0
mp-997010,TlAgO2,0.0,0
mp-510625,CrCuO2,1.6653000000000002,0
mp-753368,YbIO,0.0,0
mp-977543,ZrInRh2,0.0,0
mp-28372,AuSeCl7,1.7274,0
mp-650124,K2Rb2Re6S13,1.3711000000000002,0
mp-607829,AlTlI4,3.4463999999999997,0
mp-780395,Cd(BO2)2,2.901,0
mp-8085,Mg3P2,1.1058,0
mp-767304,LiMn2F6,0.0,0
mp-19447,Cs2NaVO4,3.9493,0
mp-10289,Ca(BC)2,0.4750999999999994,0
mp-31002,Rb2Te5,0.22820000000000018,0
mp-607223,Np3In,0.0,0
mp-976421,Nd3Mg,0.0,0
mp-631436,VOsCl,0.0,0
mp-776627,Li3FeF6,3.9832,0
mp-975380,RbCdO3,0.0,0
mp-2226,DyPd,0.0,0
mp-699431,AlH4(SeO4)2,0.0,0
mp-626716,KHO,3.6187,0
mp-996162,Nb2AlC,0.0,0
mp-864841,Nb4Ni2C,0.0,0
mp-759396,LiBi3(P3O10)2,3.9787,0
mp-560629,K3Al2(PO4)3,4.4329,0
mp-249,HfAl,0.0,0
mp-4815,Pr(SiRh)2,0.0,0
mp-19986,DyGeRu,0.0,0
mp-569875,ScBRh3,0.0,0
mp-23419,Sb4Cl2O5,2.6435,0
mp-560331,K2ZrS4,1.8944,0
mp-753555,Ce3Th2O9,0.0,0
mp-559894,Sb2Te2O9,2.615,0
mp-742859,Fe3P2(HO)16,3.1305000000000005,0
mp-24463,H3SO4F,5.4855,0
mp-555280,ZnS,2.0347,0
mp-557376,S,2.14,0
mp-38805,Sm5AgSe8,1.4720999999999997,0
mp-765804,Li6VF8,3.5201000000000002,0
mp-1867,Ta2Ni,0.0,0
mp-971826,Tl3H,0.0,0
mp-733610,H7C3N3O5,4.7405,0
mp-30808,TbNi5,0.0,0
mp-7342,Sm3Ir,0.0,0
mp-765400,Li3Cr(CO3)3,2.1942,0
mp-754345,LiTaO3,2.3884,0
mp-6757,Ho4Si2S3O7,2.6198000000000006,0
mp-561672,Cs4IrO4,0.3644000000000003,0
mp-632706,ZnH8(N2Cl)2,4.5084,0
mp-862887,LiSc2Os,0.0,0
mp-4878,ZrGeSe,0.0,0
mp-769499,LiLa8V8O32,1.1582,0
mp-1013544,Ca3SbAs,0.40180000000000016,0
mp-626279,Ca(H8O5)2,3.8912999999999998,0
mp-21457,Ti3Cu3O,0.0,0
mp-28332,CsTlI4,1.238,0
mp-1046251,Ta2Zn2WO8,0.5129999999999999,0
mp-998198,RbCaBr3,4.072,0
mp-997585,La8Al7GaO24,3.458,0
mp-1460,RbGa7,0.0,0
mp-773205,LiMnB2O5,1.011,0
mp-775975,La2Nb2N2O5,1.4661,0
mp-5193,SrZrS3,1.1848000000000005,0
mp-557713,Ba2LaTaO6,3.6312,0
mp-20155,CoSn2,0.0,0
mp-976129,PrErZn2,0.0,0
mp-676104,Tm2CuO4,0.0,0
mp-863377,Li2SnP2O7,2.2417000000000002,0
mp-1042834,V3Zn2O8,1.3676,0
mp-14215,Ba4GeP4,1.0182000000000002,0
mp-772420,Li2Co3SnO8,0.0,0
mp-557723,SiO2,3.5612999999999997,0
mp-569814,TiBr4,2.7939,0
mp-31059,Ba(AlGe)2,0.0,0
mp-995282,LiAlB4,0.0,0
mp-677055,ScCuSe2,0.6572000000000005,0
mp-703516,K2TiH2O3F4,2.5149,0
mp-4287,Sr2SnO4,2.6454999999999997,0
mp-1120,Mo3Ir,0.0,0
mp-27844,NiP,0.0,0
mp-1017983,TiMo3,0.0,0
mp-3546,Tb(Al2Fe)4,0.0,0
mp-620404,SnC2(SN)2,2.4287,0
mp-559704,PH9C3S2NClO4,4.0576,0
mp-9798,Rb(SbSe2)2,1.1135000000000002,0
mp-1018893,PrCuSn,0.0,0
mp-1028932,Te4MoW3S4,0.0,0
mp-545404,SrGd2Al2O7,2.6254000000000004,0
mp-4693,RbAlF4,6.9437999999999995,0
mp-862543,Sc2AlTc,0.0,0
mp-1009016,LuAs,0.0,0
mp-15827,Ho2Ge2Os,0.0,0
mp-31950,LiMn(PO3)4,1.7367000000000001,0
mp-18730,K3Na(FeO4)2,1.3601,0
mp-22679,Ba(MnSn)2,0.0,0
mp-2415,DyTl3,0.0,0
mp-707466,HC2S2N(O2F3)2,6.4056,0
mp-675957,Sb26O53,1.1082,0
mp-769609,Li4VCr3O8,1.5588000000000002,0
mp-574571,Rb3YCl6,5.0167,0
mp-8127,K2Mg(CO3)2,4.0485999999999995,0
mp-997028,AgO2F,0.49429999999999996,0
mp-861696,Li4Ti4Cr5O18,0.0,0
mp-1018152,LuAu2,0.0,0
mp-846,Hf2Al3,0.0,0
mp-7639,Na2CuP,0.6575000000000002,0
mp-738610,LiH20C8ClO4,4.9222,0
mp-758891,Li3CuPO5,0.23329999999999984,0
mp-23202,InI,1.3414000000000001,0
mp-976291,LiAlH4,3.9596999999999998,0
mp-771830,Sr2YI7,2.9672,0
mp-558270,AlS5N5Cl4,2.2857,0
mp-22146,In3Pd5,0.0,0
mp-541450,In2(SO4)3,3.754,0
mp-677596,Sn(BiTe2)2,0.1495999999999995,0
mp-33449,Tb5AgS8,1.7047999999999996,0
mp-774736,LiCuS,1.6984,0
mp-305,TiFe,0.0,0
mp-569228,WN,0.0,0
mp-20279,NbInSe2,0.0,0
mp-28253,LiBiO2,2.0370000000000004,0
mp-556458,BaCa(CO3)2,4.126200000000001,0
mp-752679,CaGd2O4,3.26,0
mp-21154,TbMnGe,0.0,0
mp-10896,Y(MnAl2)4,0.0,0
mp-21199,Na3(GePt)4,0.0,0
mp-37680,LiGdSe2,1.2090999999999998,0
mp-999438,Nb3Fe,0.0,0
mp-773011,Dy2Ge2O7,3.5622999999999996,0
mp-1043073,CaCo4(CuO4)3,0.0,0
mp-984629,Cr3CdTe4,0.0,0
mp-9985,NbNiB,0.0,0
mp-625316,Al(HO)3,4.9764,0
mp-1655,UIr2,0.0,0
mp-40484,NaNd3Ti2(SbO7)2,2.1497,0
mp-684828,NaCeH2S2O9,0.3348999999999993,0
mp-755457,Li2Fe2S3,0.0,0
mp-999027,Ti3Al,0.0,0
mp-568762,Na4Ge2Se5,1.963,0
mp-555300,Na2Zn3(SiO4)2,2.7950999999999997,0
mp-768232,Rb3SbO3,3.1608,0
mp-752711,BaSr2I6,3.2551999999999994,0
mp-706654,HS3N,2.8601,0
mp-17062,Dy2Si2O7,4.6278,0
mp-974,Tm2S3,0.9358000000000004,0
mp-772852,Na3Zn4P4H4NO16,3.8467000000000002,0
mp-13152,TiSe,0.0,0
mp-7844,Mg3As2,0.5453999999999999,0
mp-1046415,SrMo(PO4)2,1.9867999999999997,0
mp-976148,K2RbSb,0.6904000000000001,0
mp-13949,Cd(GaTe2)2,1.0357000000000003,0
mp-11815,SrSbAu,0.0,0
mp-676566,LiNbAs2,0.0,0
mp-697925,Na5YbH4(C2O7)2,0.0,0
mp-19108,Ca2MnWO6,2.3282000000000003,0
mp-555369,SrCuH6O5,0.6365000000000001,0
mp-7736,LuNiSn2,0.0,0
mp-20144,NbCrP,0.0,0
mp-504948,LiScGeO4,3.9614000000000003,0
mp-569983,Ni2PdSe2,0.0,0
mp-763200,LiVO3,1.9674999999999998,0
mp-759290,Li3Bi2(PO4)3,3.5627000000000004,0
mp-557787,TlSbO3,2.4363,0
mp-10909,AlRe2,0.0,0
mp-849718,Na2Ti4O9,2.4330999999999996,0
mp-18367,Yb(Al4Co)2,0.0,0
mp-1002207,ReN,0.0,0
mp-761869,Sr3Li3La5O12,3.0223000000000004,0
mp-510273,CsSbO2,2.3815,0
mp-644672,Cs3VH8(Cl3O2)2,2.4005,0
mp-1033632,RbMg6BO7,1.8588,0
mp-18707,Mg3Pt,0.0,0
mp-21684,Ce5Cu19P12,0.0,0
mp-753976,GdAsO4,2.7232,0
mp-1018635,ScPd3C,0.0,0
mp-11165,Na2MgPO4F,4.736000000000001,0