mp_id,formula,band_gap,fidelity
mp-570689,CaInPt,0.0,0
mp-12365,KThCuS3,2.0422000000000002,0
mp-10644,TaTl3Se4,2.2547,0
mp-505685,Nb2Te4O13,2.5627999999999997,0
mp-8352,SiO2,5.3649000000000004,0
mp-558836,MoF6,4.2538,0
mp-30468,ThBi,0.0,0
mp-390,TiO2,2.0517,0
mp-768670,K3MgPCO7,4.4383,0
mp-753611,PCl3O,4.5483,0
mp-978960,Sm3Tm,0.0,0
mp-867179,SrCdHg2,0.0,0
mp-766352,BaCa2I6,3.6891999999999996,0
mp-2143,USe,0.0,0
mp-567191,CaAlSi,0.0,0
mp-1048900,MgV2O4,1.4609000000000005,0
mp-2269,UTe,0.0,0
mp-1009539,OsC,0.0,0
mp-21450,Nd2InPd2,0.0,0
mp-558241,TaTl2AgS4,2.0351,0
mp-1026933,TeMo2SeS2,0.0,0
mp-1048099,Sr2Y2Ti2O7,0.0,0
mp-684482,Sn(PO3)3,0.0,0
mp-707457,KMg2B12H19O30,5.2772,0
mp-744001,Fe2H13C6NCl2O11,2.3056,0
mp-1041542,Zn(BiO2)2,1.5583999999999998,0
mp-647342,SbP3C(NCl5)3,2.0859,0
mp-696529,Al5HO8,4.3283000000000005,0
mp-554443,Na6Se2O9,1.1291999999999998,0
mp-687204,NdReMoO8,3.3322,0
mp-12174,HfNi3,0.0,0
mp-18783,Ca2FeMoO6,1.1193000000000004,0
mp-640917,SiO2,0.6553999999999998,0
mp-567638,TaPt3,0.0,0
mp-21429,U(CoSi)2,0.0,0
mp-20201,NdZnSn,0.0,0
mp-1040838,Ho(BiO3)2,0.0,0
mp-754153,LiH2BrO,4.3086,0
mp-779987,Fe3OF5,1.5144,0
mp-560581,LiBeH8CNOF4,5.5732,0
mp-1041097,MgMn2O4,0.0,0
mp-6327,LiAlSiO4,4.7985999999999995,0
mp-757220,LuH6(ClO5)3,5.3849,0
mp-755588,Ho2TeO6,2.5187999999999997,0
mp-27876,B2H3,3.074,0
mp-24384,CaH8(ClO2)2,5.3176,0
mp-555229,H5CNO2,5.0115,0
mp-645543,Pr3(Ge3Pt2)2,0.0,0
mp-1046735,Mg2Nb2SnO8,2.3247999999999998,0
mp-540688,SrIn2O4,1.8083,0
mp-746692,K2Co3P4(HO4)4,2.8373999999999997,0
mp-558629,Ba2ZnSi2O7,4.0007,0
mp-542454,Mo2As3,0.0,0
mp-357,SmPd3,0.0,0
mp-753709,BaCaI4,2.8307,0
mp-569927,ErZn5,0.0,0
mp-631431,InHgW2,0.0,0
mp-557998,Dy3CuSiS7,1.7895000000000003,0
mp-849246,Ti2CdO5,2.5113,0
mp-2236,UIr,0.0,0
mp-540735,Cs2UBr6,0.0,0
mp-769599,NaCrPCO7,0.7245,0
mp-29375,Na3InS3,2.2716000000000003,0
mp-530149,Ca12Al14O33,1.9743,0
mp-20725,PbO2,0.015500000000000291,0
mp-30961,Ca7Tl3N2,0.0,0
mp-865486,VZnRu2,0.0,0
mp-865116,LiSmTl2,0.0,0
mp-1027550,TeMo2SeS2,0.0,0
mp-755243,Li5CuSO2,2.3831999999999995,0
mp-756515,Li4Nb(TeO4)3,0.0,0
mp-608461,PaCl2O,0.0,0
mp-23536,SbI3Cl8,1.1884000000000001,0
mp-861955,LiPm2Ge,0.0,0
mp-1043977,LaMgFeCoO6,0.7493999999999996,0
mp-768907,Sr3TeO6,3.0473,0
mp-561877,HoF3,7.7482,0
mp-2291,Si2Ni,0.0,0
mp-16932,Th2Co17,0.0,0
mp-12674,MnAu,0.0,0
mp-638009,RbPPbS4,2.3703,0
mp-2212,ScCo,0.0,0
mp-12623,BaPdF4,1.3729,0
mp-1044006,MgAgBiO5,0.5313999999999999,0
mp-580,PuB2,0.0,0
mp-1046267,Ba2Ti3Tl2Zn2O10,0.0,0
mp-997182,C,9.999999999998899e-05,0
mp-763244,ZnFeH4O2F5,2.9358,0
mp-771304,Li3SiSbCO7,3.4543,0
mp-754253,EuTlO2,0.0,0
mp-9983,Ta2Se3,0.0,0
mp-555598,KGd(PO3)4,3.2157,0
mp-19107,LiMnVO4,2.2182,0
mp-1027463,Te4Mo3W(SeS)2,0.0,0
mp-557224,HgSeO3,2.5934,0
mp-15822,LiSmGe,0.0,0
mp-1047534,Ca2MnNb2O8,2.7039,0
mp-7876,Ba(MgGe)2,0.0,0
mp-754969,TmBrO,4.3469,0
mp-28616,NbTe5Pd,0.0,0
mp-740746,NaH2BrO5,1.3121999999999998,0
mp-556920,Tb9(SbO)5,0.0,0
mp-758929,Li2Cu(PO3)4,0.3258000000000001,0
mp-504909,Ni2SnP,0.0,0
mp-558325,K2YNb5O15,1.6085,0
mp-779059,LiV4O5F7,0.8908,0
mp-765749,Ni3OF5,0.5717,0
mp-681992,Zr5Pb3,0.0,0
mp-3288,CsNO2,2.3383000000000003,0
mp-29996,La3PI3,0.0,0
mp-554336,NbAg2(PS4)2,1.6183,0
mp-1540,HoTl,0.0,0
mp-17350,La2TeO6,2.9623999999999997,0
mp-571098,Lu(FeSi)2,0.0,0
mp-1009082,MgSnAs2,0.40390000000000015,0
mp-11550,Sc2Pt,0.0,0
mp-13687,Cs2KAgF6,0.6207999999999999,0
mp-7220,NaY3SiS7,2.1984,0
mp-667379,Ba7Al64O103,4.2537,0
mp-11541,ZrOs,0.0,0
mp-771773,Na2BiBPO7,0.029200000000000004,0
mp-639714,TlVTeO5,2.3593999999999995,0
mp-24363,PH10N2O4F,4.9132,0
mp-510546,Sr2CoMoO6,0.0,0
mp-1719,PuN,0.0,0
mp-995181,SnGe,0.21999999999999975,0
mp-770101,Li5MnO5,0.0,0
mp-38394,Ba(AlTe2)2,1.5052999999999996,0
mp-1027001,Te2MoW3(Se2S)2,0.0,0
mp-773363,Li4Mn3WO8,0.9333,0
mp-974789,Rb3Sn,0.0,0
mp-9382,SrZrN2,0.23580000000000023,0
mp-12465,Co(TePd)2,0.0,0
mp-979938,Yb3Tc,0.0,0
mp-1852,UF5,0.7489,0
mp-10260,Ni3Sb,0.0,0
mp-19473,CaNi3(P2O7)2,4.0017,0
mp-672212,NaNb13O33,1.6963,0
mp-9194,SmCuSeO,1.2864999999999993,0
mp-1002080,CsLiICl,3.3604000000000003,0
mp-554145,Na3SrPCO7,4.0616,0
mp-9277,Ce2CrN3,0.0,0
mp-542178,Nd2Zn15Ge2,0.0,0
mp-767223,LiVCrP2(O4F)2,1.0971,0
mp-758945,Li5CuHO4,0.2156,0
mp-6299,K2Mg2(SO4)3,5.544899999999999,0
mp-18126,Tb3CuSnSe7,1.0152999999999999,0
mp-756290,TbGaO3,3.6355999999999997,0
mp-725,RhO2,0.0,0
mp-867210,LiCa2Hg,0.0,0
mp-779355,Li3MnF5,4.3604,0
mp-983589,Ag2GeO3,0.21130000000000004,0
mp-864794,ZnAg3,0.0,0
mp-669456,La2Al3Ge4,0.0,0
mp-776754,Li2Fe3F8,3.2095,0
mp-568920,CaAu5,0.0,0
mp-545659,Ba2DyBiO6,1.7248000000000006,0
mp-10492,Rb2SiF6,6.991199999999999,0
mp-1048259,MgNiP2O7,3.9661,0
mp-19440,LiVO3,2.8222,0
mp-20742,EuPSe3,0.3691,0
mp-972891,ScBe13,0.0,0
mp-567409,Sb,0.0,0
mp-3211,Nd2SO2,2.8645,0
mp-28789,Na4Cu2S3,2.0857,0
mp-863000,SnH6(NF2)2,5.0716,0
mp-622196,KHgC3(SN)3,1.9119000000000002,0
mp-557437,KBi(PS3)2,2.2234000000000003,0
mp-644594,K2MgMo2(H2O5)2,3.5278,0
mp-706995,ZnCoH18N6Cl5,2.6896,0
mp-600051,SiO2,5.5706,0
mp-1042299,MgMo2O7,3.6859,0
mp-568121,Mn4Si7,0.7785999999999991,0
mp-541860,TiAs2H4O9,2.9447,0
mp-17875,Ca6GaN5,0.8124000000000002,0
mp-3831,SmPO4,5.7418000000000005,0
mp-865125,MgGaRh2,0.0,0
mp-568417,PrAl,0.0,0
mp-764379,V2O2F3,1.2749000000000001,0
mp-615993,SiO2,5.4699,0
mp-757916,Bi12AsO20,0.0,0
mp-581425,ZnS,2.0194,0
mp-14333,TaAlO4,4.0663,0
mp-32727,Y3Se4,0.0,0
mp-753405,LiCuF3,0.4668,0
mp-782662,Li2V5Cr2O12,1.2826999999999997,0
mp-3384,Er3Al5O12,4.758,0
mp-4175,ZnSnP2,0.7042999999999999,0
mp-19830,ErN,0.12429999999999986,0
mp-1043935,Mn2Zn(PO5)2,0.0,0
mp-977062,Na3Ca,0.0,0
mp-20391,B2Mo2Ir,0.0,0
mp-764885,LiFe8(BO3)8,1.2682999999999998,0
mp-1044380,MgFeBiO5,0.5377000000000001,0
mp-759223,Sn(SO4)2,2.3798,0
mp-2965,Ce(MnSi)2,0.0,0
mp-542891,ZnAu2(CN)4,2.7763,0
mp-703342,Ti2P2H4O11,2.7606,0
mp-15519,NdZn(BO2)5,5.037800000000001,0
mp-766947,Sn(PO3)2,3.7795999999999994,0
mp-30228,Li4HN,1.9198,0
mp-31198,Er3Ru2,0.0,0
mp-775145,Li4Nb3Cu3(SnO8)2,0.021599999999999397,0
mp-673848,Ce2Dy2O7,1.6279,0
mp-510503,Nd5Sn3,0.0,0
mp-863760,CsAcTe2,0.8815,0
mp-1019316,Tc2N,0.0,0
mp-767606,Na2NdPCO7,4.3794,0
mp-1026034,Mo(WS3)2,1.3041000000000003,0
mp-10981,YbSbPd,0.0,0
mp-976333,Li2AcTl,0.0,0
mp-570418,YbI2,4.007,0
mp-767955,Li3Fe2(NiO4)2,0.0,0
mp-337,PuBe13,0.0,0
mp-541510,W2Se17Cl12,0.0,0
mp-29381,Na2Te2As,1.0608,0
mp-723002,Ag2H12S(NO)4,2.9412000000000003,0
mp-971859,Zn3B,0.0,0
mp-866830,Ca3SnS5,1.0141,0
mp-541640,Nd4Os6O19,0.0,0
mp-735541,NiSn2H12(OF)6,4.5576,0
mp-973540,LuAlB4,0.0,0
mp-7046,RbDyS2,2.3216,0
mp-764629,Rb3NaV4H2O13,2.9785,0
mp-779435,Ga3NO3,0.0009000000000001229,0
mp-510566,La3CuSnS7,1.7763999999999998,0
mp-21089,Ce(MnGe)2,0.0,0
mp-17400,Ba2TaN3,2.0175,0
mp-559822,La2TaCl3O4,3.6843,0
mp-761087,NaTiO2,0.0,0
mp-23818,BaLiH3,2.213,0
mp-2775,SrAl4,0.0,0
mp-1045992,CaCuO2,0.03200000000000003,0
mp-708955,PH8C2NO4,5.3301,0
mp-23503,Na3InCl6,3.7822999999999998,0
mp-34735,Ho2CdS4,0.6539999999999999,0
mp-561190,NaAu(SO4)2,1.7422,0
mp-24560,LiB2H3O5,4.8897,0
mp-540998,FeTeBr7,1.0596,0
mp-721312,Na2H2CO4,4.1589,0
mp-1046688,MgFeSiO5,0.0,0
mp-1044230,MgCoBiO5,0.4618000000000002,0
mp-698350,Na3AlH10C6O17,3.2651000000000003,0
mp-29794,Ba2PdF6,1.6786999999999999,0
mp-1020015,Li2B3PO8,5.402900000000001,0
mp-603414,Rb2TeH6SeO10,3.0242,0
mp-16934,BaLaAlO4,4.4343,0
mp-10165,KAlTe2,1.7037,0
mp-767527,Li6Sb3S,0.0,0
mp-18848,Sr2MgWO6,3.2641,0
mp-6662,NaSr3IrO6,0.0,0
mp-697114,MgH12SO9,3.8310999999999997,0
mp-866224,Be2NiPt,0.0,0
mp-28898,BaCN2,2.247,0
mp-978552,SiRh3,0.0,0
mp-570592,Tb4CdCo,0.0,0
mp-978092,PrCuGe2,0.0,0
mp-1028931,Te2MoWSe2,0.3958999999999997,0
mp-554255,Ba3(PS4)2,2.1538,0
mp-560527,SiO2,5.3907,0
mp-757349,LiSiBiO4,2.8189,0
mp-571386,CuCl,0.32750000000000057,0
mp-5082,Nd2Si3Rh,0.0,0
mp-770322,Rb2PrO3,0.0,0
mp-861916,La2IrPd,0.0,0
mp-721562,K2P3H5O11,5.0482,0
mp-752584,Na5Cu7O13,0.0,0
mp-11772,Ba3Ti3(BO6)2,2.1313,0
mp-966800,InP,0.5146000000000006,0
mp-696384,K2CuH4(Cl2O)2,0.5887,0
mp-754414,SrSm2O4,3.5245999999999995,0
mp-600061,SiO2,5.6122,0
mp-1030391,Te2MoWS2,0.0,0
mp-16930,Na3GeTe3,1.3032000000000001,0
mp-2071,Zn3P2,0.3144,0
mp-757310,ZnP2H14C2(NO)6,4.9663,0
mp-755777,Ce2S2O,0.0,0
mp-775170,Li2AlCr2SbO8,2.0373,0
mp-8086,Na2Zn2O3,1.0572,0
mp-752429,ScTlO3,0.9279999999999995,0
mp-984716,CaSn4(PO4)6,3.5178999999999996,0
mp-322,TlS,0.7034000000000002,0
mp-1047403,Ca(AgO2)2,0.0,0
mp-1046352,Ta2MoO8,1.0421999999999998,0
mp-23915,Ca2Al3Si3HO13,5.036199999999999,0
mp-620372,Rb2Se5,0.8362,0
mp-1025876,Te2Mo3Se4,0.0,0
mp-504877,HoB7Mo3,0.0,0
mp-27573,NaSb3F10,4.968,0
mp-21371,VCoSi,0.0,0
mp-1046151,SrMgSn(PO4)2,3.4052,0
mp-28881,Rb2UCl5,0.11590000000000034,0
mp-686183,Zn(Bi25O38)2,1.9832,0
mp-570623,Pr4Te3N2,0.7522000000000002,0
mp-1194,CdPt,0.0,0
mp-1043618,Mg(BiO2)4,0.0,0
mp-675435,MgMo3Se4,1.1651999999999996,0
mp-18032,Nb5Ga4,0.0,0
mp-707983,Ca2MgB2H16(CO9)2,4.7695,0
mp-607437,Na2In5Au6,0.0,0
mp-772220,Li3Ta7O19,2.8734,0
mp-642817,KHO,3.6397,0
mp-10378,Cs3Sb,0.6137000000000001,0
mp-1048366,BaYMn4O7,0.0,0
mp-27339,Sb2(SO4)3,4.016299999999999,0
mp-6137,Mg4P6SN12,4.830500000000001,0
mp-27283,TlPb2Cl5,3.4637,0
mp-559530,Ti5(PO5)4,2.891,0
mp-5693,NaCrS2,0.9843000000000002,0
mp-1047893,CaCo3P3O13,0.4817,0
mp-764720,LiFe2(BO3)2,1.8001999999999998,0
mp-865470,Ac2CuSn,0.0,0
mp-755895,Ba3Zr2O7,3.0246000000000004,0
mp-1047222,Mg2CrWO6,1.6677999999999997,0
mp-757899,Li3Sn2(PO4)3,2.1750999999999996,0
mp-628549,Pr(WO3)5,0.0,0
mp-705527,ReH(CO)4,2.8664,0
mp-556518,K2Pd(NO3)4,1.9068,0
mp-1027722,Te2Mo3W(Se2S)2,0.0,0
mp-1591,Al4C3,1.3154000000000003,0
mp-770560,Na4Cr2C4SO16,1.6368,0
mp-765036,Li2MnOF3,0.5323,0
mp-772838,Er(ReO4)3,3.8063000000000002,0
mp-17460,Lu5(Co2Si7)2,0.0,0
mp-545548,BaHf(PO4)2,4.9273,0
mp-560528,K2Ce(PO4)2,1.452,0
mp-457,CeBe13,0.0,0
mp-608072,SrIn,0.0,0
mp-29929,NaLi5N2,2.6507,0
mp-8994,Rb2NbF6,0.21979999999999977,0
mp-707977,AlPO4,5.5405999999999995,0
mp-22894,AgI,1.3877000000000002,0
mp-974635,Rb3Ca,0.0,0
mp-775178,LiFe2OF3,2.0694,0
mp-775257,Li8Mn3Fe5(BO3)8,3.1048,0
mp-19849,NpGa2,0.0,0
mp-510519,Rb2V3O8,2.0559999999999996,0
mp-756270,Lu4(B2O5)3,5.2305,0
mp-22887,EuCl2,1.2143999999999995,0
mp-16484,Ce2Al2Co15,0.0,0
mp-2795,ZrC,0.0,0
mp-769176,K5YO4,2.1115,0
mp-21336,TaFeP,0.0,0
mp-532091,Na26In4O19,1.2783,0
mp-753197,HfTiO4,2.8259,0
mp-975904,Li3Cd,0.0,0
mp-1028520,Te4MoW3S4,0.0,0
mp-29750,CsMgBr3,4.0445,0
mp-781707,La4Al2O9,4.490500000000001,0
mp-631574,Ba2BeGa,0.0,0
mp-10871,AlAu,0.0,0
mp-557517,Tb3CuGeS7,1.7968000000000002,0
mp-11722,PrGe2,0.0,0
mp-672340,LiIn2Ru,0.0,0
mp-557211,SiO2,5.553599999999999,0
mp-548479,Cs2U2O7,1.4975999999999998,0
mp-2097,SnO,0.4096000000000002,0
mp-561523,NbTlCl4O,2.1768,0
mp-16826,Yb5Sb3,0.0,0
mp-568854,CsReBrCl3,1.1778,0
mp-12065,Ag3Pt,0.0,0
mp-765731,Mn3OF5,0.0,0
mp-760477,SmBO3,4.3574,0
mp-555845,BaLiZr2F11,5.7451,0
mp-684733,Ti10O11,0.0,0
mp-4828,HfNi2Sn,0.0,0
mp-558396,Rb2Te(H6O5)2,3.0155000000000003,0
mp-1045347,YTi2O4,0.0,0
mp-542888,La3AgSnS7,1.9474,0
mp-764589,LiFe2(BO3)2,1.7538999999999998,0
mp-557955,Ca3Al4ZnO10,3.5446999999999997,0
mp-977389,CeCuO3,0.0,0
mp-625154,H8PtO6,1.6174000000000002,0
mp-686745,Ba3LiTi5Nb3O21,2.1934000000000005,0
mp-1019253,SmSe2,0.0,0
mp-686949,ThCr(IO5)2,2.7038,0
mp-559535,H5C2ClO,5.4003,0
mp-861881,LiGeAu2,0.0,0
mp-983566,Ca2AgGe,0.0,0
mp-680093,CdI2,2.3358000000000003,0
mp-979426,YHoRu2,0.0,0
mp-867307,Be2RuAu,0.0,0
mp-1045627,AlCu7O12,0.0,0
mp-36,Sc,0.0,0
mp-18744,Sr2ErMoO6,1.2340999999999998,0
mp-23944,BaH6Cl2O11,5.297000000000001,0
mp-64,Ce,0.0,0
mp-862897,PmCdPt2,0.0,0
mp-4808,NdAgSn,0.0,0
mp-8425,Li8TbO6,0.0,0
mp-626411,In(HO)3,2.7771999999999997,0
mp-640266,Ca3Al2O6,0.0,0
mp-1028971,Te2MoW3(Se2S)2,0.0,0
mp-758527,K3ErSi3(HO5)2,4.6339999999999995,0
mp-2424,LaZn5,0.0,0
mp-23750,SiH9C4F3,6.367,0
mp-406,CdTe,0.5846000000000002,0
mp-30338,Y3Al,0.0,0
mp-20744,ZrInNi2,0.0,0
mp-972236,V2MoW,0.0,0
mp-556666,CaBiCO4F,2.2216,0
mp-10020,ScC,0.0,0
mp-674644,Bi2O3,0.6235999999999997,0
mp-1169,ScCu,0.0,0
mp-781048,Fe4O3F5,1.0832,0
mp-31284,NaSn5,0.0,0
mp-6813,KCa10(PO4)7,5.241,0
mp-1045417,Ca(CrS2)2,0.3849999999999998,0
mp-1001024,Y2MgS4,1.7768000000000002,0
mp-1042722,MgCoAs2O7,1.9598,0
mp-8514,BaNd2PdO5,2.2190999999999996,0
mp-614456,He,17.8914,0
mp-1019510,AlPO4,5.478400000000001,0
mp-30857,Zn12Pt7,0.0,0
mp-22328,K4PbO4,1.6772,0
mp-568233,CdI2,2.3727,0
mp-557807,CsK2AuO2,2.1806,0
mp-12779,CdTe,0.6198000000000001,0
mp-574485,Cs4Ga2Se5,2.1170999999999998,0
mp-764879,V4(OF3)3,1.4453,0
mp-30755,La2Sn5Rh3,0.0,0
mp-17966,KInP2O7,3.8447000000000005,0
mp-559287,Ho2Sn3(PbS4)3,0.6225000000000005,0
mp-776006,VCo(PO4)2,0.0,0
mp-3847,DyCoC2,0.0,0
mp-560046,Ta2Pt3S8,0.6797000000000004,0
mp-16293,KSbO3,1.1347999999999998,0
mp-642320,Bi32P10Pb3O76,2.2872000000000003,0
mp-1041585,Re(WO4)2,0.10380000000000011,0
mp-8192,Rb2PtF6,2.6425,0
mp-40143,Cs2KZrOF5,4.8774,0
mp-30816,Li2AlPd,0.0,0
mp-690515,K2CoH2(SeO5)2,1.0581,0
mp-542967,SnSO4,4.1208,0
mp-23164,Bi2Se3,0.9558,0
mp-674484,YbCe9O20,0.0,0
mp-9144,LiAsF6,5.1404,0
mp-1044153,Zn(MoO2)4,0.0,0
mp-983428,PmDyIn2,0.0,0
mp-34289,TiNbS4,0.0,0
mp-676361,Li3ErCl6,5.2109000000000005,0
mp-755364,NdSeO,0.3370999999999995,0
mp-1044591,Ca(W2O3)2,0.0,0
mp-684090,LiSbP2O7,3.6516,0
mp-569218,Ba3Al3Ga2,0.0,0
mp-780618,Na2BiO3,0.0,0
mp-773111,Ba2LaCl7,4.2082,0
mp-770833,Li2SnBO4,1.2701000000000002,0
mp-29955,Hg3(SeI)2,1.1701000000000001,0
mp-13208,Mg2Pt,0.0,0
mp-768950,Sn2(SO4)3,2.5934,0
mp-20790,InPS4,2.3061,0
mp-600182,CdH8C2Br3N,3.3781,0
mp-763353,Fe4O5F3,0.0,0
mp-561313,Si2Ag6O7,0.30810000000000004,0
mp-632,TmCo2,0.0,0
mp-673706,Li7(Mo3Se4)4,0.0,0
mp-24337,MgH2Cl2O,5.370699999999999,0
mp-2580,NbB,0.0,0
mp-972077,TcGe3,0.0,0
mp-998609,CsNaF3,0.01750000000000007,0
mp-28865,Os(SCl6)2,0.0,0
mp-570782,MgCl2,5.1512,0
mp-756393,Er2Nb2O7,0.0,0
mp-28638,Gd2CCl,0.0,0
mp-558392,Bi2Ir2O7,0.0,0
mp-1018794,Mg2Ge,0.0,0
mp-10618,LiInSe2,0.8380999999999998,0
mp-624234,TePb2O5,2.1304999999999996,0
mp-778827,LiMn2(BO3)2,0.5357000000000001,0
mp-556362,BiSeClO3,3.5894,0
mp-657378,Na3Si2PO8,3.1493999999999995,0
mp-998786,TlPdF3,0.0,0
mp-4644,Si2N2O,4.410699999999999,0
mp-773200,LiVB2O5,2.5525,0
mp-558845,PH10C3N2O4F,5.1415,0
mp-608206,CsC2I3N2,3.2363,0
mp-573974,Tl10Hg3Cl16,2.6482,0
mp-23993,H4CSN2,4.3252,0
mp-757806,LiSn(PO3)4,0.056599999999999984,0
mp-30111,BaLaI4,0.0,0
mp-1041342,BaTaF7,3.9804,0
mp-976023,Li3Ga,0.0,0
mp-1048964,CaCr2O4,1.0032,0
mp-1042498,CoTe2O7,0.5096999999999998,0
mp-28927,Ba(NiP2)2,0.0,0
mp-975051,Rb3Ag,0.0,0
mp-3708,Tl(FeTe)3,0.0,0
mp-14390,Na3GaP8O23,5.0014,0
mp-30585,HoCu5,0.0,0
mp-36069,Co2TcO4,0.0,0
mp-7904,CdP4,0.6506000000000007,0
mp-673134,LiSn2P3O10,2.898,0
mp-15779,Mg2SiNi3,0.0,0
mp-777312,Li4Sn2P4H3O16,0.27059999999999995,0
mp-558516,TmSeClO3,4.336799999999999,0
mp-753456,Ce4ThO9,0.0,0
mp-3195,Sr11(CdSb2)6,0.3131999999999997,0
mp-27449,GaTeCl,2.1702,0
mp-10529,Er2AlSi2,0.0,0
mp-779590,La3PO7,4.062099999999999,0
mp-4136,CePO4,0.18820000000000014,0
mp-2531,Er2Co17,0.0,0
mp-555119,SrTaF7,5.4906,0
mp-975921,HfRu3,0.0,0
mp-542942,ZnCdC4(SeN)4,3.0604999999999998,0
mp-24578,MgH10(SeO5)2,4.7347,0
mp-684950,KNaZr2Be(PO4)4,2.6611000000000002,0
mp-631552,SrBiB,0.0,0
mp-561561,Cs2KRhF6,2.1034,0
mp-541299,Zr4Cd(PO4)6,3.7527,0
mp-675620,Nd2PbS4,2.0293,0
mp-865599,Lu2RuPt,0.0,0
mp-21062,YbMnGe,0.0,0
mp-1041080,HoMgMn2O6,0.0,0
mp-776378,LiCuBO3,0.0,0
mp-1008872,MnFeTe,0.0,0
mp-764773,Li4Cr3Co2Sb3O16,0.6461999999999999,0
mp-1045571,AlNi3Se2ClO8,1.5995999999999997,0
mp-5838,Ba2SiS4,3.0012,0
mp-774332,Na2Co2O3,0.7684000000000002,0
mp-13567,CeS2,0.0,0
mp-16319,Rb3Sb,0.08969999999999989,0
mp-762413,Li3CrSiO5,2.9625999999999997,0
mp-1047249,Ti2ZnO4,0.0,0
mp-778,Fe2P,0.0,0
mp-6040,BaBPO5,5.495,0
mp-1046168,Ca2Ta2NiO8,3.4551000000000003,0
mp-6543,VAg(PSe3)2,0.0,0
mp-540330,Li2V(PO3)5,2.2923,0
mp-7377,Ba3(AlSn)2,0.0,0
mp-755239,Ga2HgO4,0.5638000000000003,0
mp-600049,SiO2,5.646800000000001,0
mp-975298,RbNa3,0.0,0
mp-1042028,CaMn2O4,0.052200000000000024,0
mp-13496,ZrPd,0.0,0
mp-18936,NdFe3(BO3)4,2.3192999999999997,0
mp-1002209,ReN,0.0,0
mp-540742,NdTl(PO3)4,5.2239,0
mp-755165,YScO3,4.4324,0
mp-17806,Ta2V4Si5,0.0,0
mp-867474,Li2EuSn,0.0,0
mp-675514,Ce3AsS3,0.0,0
mp-6790,Ba2Y(CuO2)4,0.0,0
mp-505572,Al13(CrSi)4,0.0,0
mp-1048892,V2ZnO4,1.3592999999999997,0
mp-672979,LiBiP2O7,4.4057,0
mp-669594,Pr5Ga3,0.0,0
mp-998241,MnInF3,2.4740999999999995,0
mp-978269,MgZn2,0.0,0
mp-754556,Nb3N5,0.6958000000000002,0
mp-557177,Li2Al(BO2)5,5.6317,0
mp-22961,Li2ZnCl4,4.1422,0
mp-1019532,BaAl4O7,4.1958,0
mp-631553,Ga2BSb,0.0,0
mp-24390,CaPHO4,5.4321,0
mp-1009819,SrO,2.7428000000000003,0
mp-1967,TaTe2,0.0,0
mp-541694,K2Na3SiP3,0.8900999999999999,0
mp-557810,BaH6F8,7.5667,0
mp-16515,Al4Ni3,0.0,0
mp-625207,P(HO)3,4.5579,0
mp-8586,InBF4,4.532,0
mp-9259,Ba2Mg(BO3)2,4.532399999999999,0
mp-571609,HfGaPt,0.0,0
mp-21879,Ba2CePtO6,1.4203999999999999,0
mp-1041840,MgCo(SiO3)2,2.9549000000000003,0
mp-755021,ReO3,0.0,0
mp-17004,UOF4,1.9952999999999999,0
mp-755495,Li5Cu3(TeO5)2,0.25479999999999947,0
mp-13744,Rb3GaO3,2.4165,0
mp-568148,PrZn11,0.0,0
mp-29866,SnCl4,3.5509999999999997,0
mp-600215,PH9C2NO3F,5.6759,0
mp-764355,LiFeSiO4,2.9554,0
mp-770726,Li9Al(CoO4)2,2.3287000000000004,0
mp-16498,Sm(Al2Cu)4,0.0,0
mp-778864,Li2Mn3(PO4)3,0.013500000000000068,0
mp-934,LiTl,0.0,0
mp-556528,In4GeS4,1.0698000000000003,0
mp-1716,Rh2O3,0.5594000000000001,0
mp-974527,NdSmZn2,0.0,0
mp-4408,Sm2Zr2O7,3.0741,0
mp-753920,Tm2SeO2,2.1147,0
mp-774567,Er2TiO5,3.2962,0
mp-19031,RbVO3,3.0513,0
mp-27411,TlP5,1.1813000000000002,0
mp-999558,Mn2SiNi,0.0,0
mp-3051,Mg2GeO4,3.4021,0
mp-815,GaNi3,0.0,0
mp-783908,Li4Cr3Cu3(SbO8)2,0.0,0
mp-24528,CrH8C4(S2N3)2,1.1524999999999999,0
mp-4788,K(OsO3)2,0.0,0
mp-561947,CsHgF3,0.7228,0
mp-643367,YCBr,0.0,0
mp-752673,Dy2CuO4,0.0,0
mp-757177,Li6CuS4,0.0,0
mp-542117,Cd3Se3O10,3.068,0
mp-669465,Te2S4(NCl3)3,2.1287000000000003,0
mp-2285,Te2Ir,0.0,0
mp-1048488,YCr3Se2ClO8,1.7814,0
mp-11233,ZrAl,0.0,0
mp-698206,Ba5Re3O16,0.5103,0
mp-16837,Nb3AgO8,1.5603999999999996,0
mp-675902,YCuSe2,1.0704999999999996,0
mp-775153,Li3FeOF3,3.0904000000000003,0
mp-707976,KH2SeNO3,3.6477000000000004,0
mp-685295,Sr22Nb10O47,1.7082999999999997,0
mp-555562,LiIO3,3.5575,0
mp-976935,Ni3Hg,0.0,0
mp-758157,Na4H2RuN6O13,2.1724,0
mp-974690,Rb2CuCl4,0.0,0
mp-1019100,SmFeSi,0.0,0
mp-29157,Si3P2Pt,0.6074000000000002,0
mp-567172,Cs2NaYbCl6,0.0,0
mp-867826,DyMgHg2,0.0,0
mp-23755,BaH3C3O7,2.8525,0
mp-556058,Na2RuO3,0.0,0
mp-14434,K3GeS3,2.4021000000000003,0
mp-865612,LiCd3,0.0,0
mp-568949,TlBr,2.1678,0
mp-850939,Li2MnV(P2O7)2,0.010100000000000442,0
mp-580541,Cs2NaSmCl6,5.0722000000000005,0
mp-505537,Al3(Co10B3)2,0.0,0
mp-25576,Li(MoO2)2,1.4956999999999998,0
mp-625619,H4N2O3,0.6079,0
mp-1042370,SnAs2O7,1.1983000000000001,0
mp-770357,Li2AlNiO4,1.8098999999999998,0
mp-608517,EuSnPt,0.0,0
mp-556145,NaAsO2,3.6341,0
mp-1043215,MgNiSnP2O9,3.0102,0
mp-778612,Na3CuO2,1.5675000000000001,0
mp-27409,RbNiBr3,0.47230000000000016,0
mp-1043995,LaFeSbO6,0.0,0
mp-30730,Ho5Pb3,0.0,0
mp-641621,U4Ga12Co,0.0,0
mp-24574,NdH5(SeO4)2,4.4543,0
mp-715035,VO2,0.7988,0
mp-779089,CoOF,0.0,0
mp-973831,LiHoPd2,0.0,0
mp-1047,Ca3N2,0.7733000000000003,0
mp-767526,Na3CuPCO7,0.1440999999999999,0
mp-510087,Pd2N,0.0,0
mp-924129,ZrNiSn,0.49540000000000006,0
mp-1687,BaPd2,0.0,0
mp-11883,MgIr2,0.0,0
mp-752636,LiSbO3,1.1944999999999997,0
mp-7456,SnF2,3.2628999999999997,0
mp-28862,Y6RuI10,0.0,0
mp-758558,SbNO,0.0,0
mp-558085,KNaGeO3,3.0313999999999997,0
mp-623295,SmGaCo,0.0,0
mp-651005,In3Bi7(Pb2S9)2,0.0,0
mp-771359,Cu2O3,0.0,0
mp-865149,PaAlRu2,0.0,0
mp-5434,Y2Fe14B,0.0,0
mp-707226,H8Se2N2O5,3.748,0
mp-23714,SrH2,3.1544,0
mp-770876,Li3Ni(BO3)2,1.1688,0
mp-770104,LiMn4O8,0.0,0
mp-3416,Na3AlF6,6.714499999999999,0
mp-1048376,CaCoP2O7,2.8918,0
mp-7775,U2AlCu3,0.0,0
mp-18637,Na2Cu3(GeO3)4,0.3064,0
mp-570081,CuI,1.6338,0
mp-720583,Na3B3H2O7,4.5439,0
mp-695927,Ca2AlH10ClO8,3.3211,0
mp-764500,Li8Fe(O2F)2,3.0276,0
mp-757324,CeZr6O14,2.152,0
mp-1007664,InPd3,0.0,0
mp-631508,LaReB,0.0,0
mp-764949,MnF3,0.25649999999999995,0
mp-20244,ZrPbS3,1.2455000000000003,0
mp-19269,NdCrO3,2.3395,0
mp-541627,K3Fe(CN)6,0.0,0
mp-29073,Nb2GeTe4,0.25450000000000017,0