mp_id,formula,band_gap,fidelity
mp-631482,BiMoRh,0.0,0
mp-977058,NpBO3,0.0,0
mp-12080,Dy(CrGe)2,0.0,0
mp-9935,GeSb,0.0,0
mp-780316,LiCo2OF5,0.8738,0
mp-2196,BaSb2,0.0,0
mp-677246,Ba6Ti2Nb10Si8O51,2.6809000000000003,0
mp-568713,H8C2I3N,1.9774000000000003,0
mp-976828,MgPb3,0.0,0
mp-557268,KLi4AlO4,3.9726,0
mp-13971,Nd2SeO2,2.1457,0
mp-645663,Te2Mo3Se7Br10,1.4804000000000002,0
mp-19959,LuTiGe,0.0,0
mp-23029,Cs3Sb2I9,1.8679000000000001,0
mp-23221,PrBr3,3.4284,0
mp-33872,Na7Zr6F31,5.2616000000000005,0
mp-237,TmTe,0.0,0
mp-706544,NaGa(H2N)4,2.7434,0
mp-638442,Gd2Al6Si4Au,0.0,0
mp-24135,AlH18Ru(NF)6,0.0,0
mp-542675,Na(RhO2)2,0.0,0
mp-1008284,Cr3Ni,0.0,0
mp-973894,LaNdZn2,0.0,0
mp-1008998,LaS,0.0,0
mp-11324,TaSe2,0.0,0
mp-543052,Tm5Sb3,0.0,0
mp-30349,Li2AgPb,0.0,0
mp-5223,GdAlO3,3.2382,0
mp-1044950,LaTiZnCrO6,2.3718999999999992,0
mp-1018826,NdGeAu,0.0,0
mp-505330,Tm2Mn3Si5,0.0,0
mp-28875,Hg2P3Cl,1.1288000000000005,0
mp-567402,CdI2,2.3571999999999997,0
mp-1028791,Te4MoW3(SeS)2,0.0,0
mp-30858,ZrPt3,0.0,0
mp-8774,Rb3CO3F,3.4607,0
mp-1464,Nd5Ge3,0.0,0
mp-17791,Cd4SiSe6,0.8187,0
mp-16795,CaAlF5,7.1355,0
mp-567406,SmZn5,0.0,0
mp-22919,AgI,0.7690000000000001,0
mp-1041909,ZnCr2O4,0.5131999999999999,0
mp-20859,DyCuSb2,0.0,0
mp-560208,K3NbAs2O9,3.1394,0
mp-721217,K2P2H2O7,5.0961,0
mp-11214,CaAgSb,0.0,0
mp-8620,La2Si5Rh3,0.0,0
mp-571041,DyB2Rh2C,0.0,0
mp-721049,H16RhN5(ClO4)2,3.6608,0
mp-996978,CuAuO2,0.0,0
mp-570403,TbCd3,0.0,0
mp-22179,YTiSi,0.0,0
mp-755898,Er3TaO7,3.4113,0
mp-29742,NdSi2Rh3,0.0,0
mp-607126,Nd(In2Au)2,0.0,0
mp-1019527,Ba3Y2(B2O5)3,4.5196000000000005,0
mp-775110,Li2Ti3CoO8,1.7291000000000003,0
mp-976713,HoH2ClO2,4.7024,0
mp-17862,Ag3Ge5P6,0.5381,0
mp-9309,CsTa(BO3)2,3.4027,0
mp-972217,Ti2CuTc,0.0,0
mp-18498,Sr3YRhO6,2.1512000000000002,0
mp-999454,NaVS2,0.0,0
mp-736225,Sr2Re4H16C3(N2O7)3,3.2622,0
mp-651073,CdAs2C4SN4(OF6)2,3.5227,0
mp-557605,Hg2Pb(SI)2,1.6317,0
mp-12450,LiNd2OsO6,0.4066000000000001,0
mp-690542,Li4WO5,3.0471,0
mp-571134,Se2NCl3,1.2001,0
mp-1018689,ErZnIn,0.0,0
mp-755060,Cs2O,0.2724000000000002,0
mp-8675,HgPd,0.0,0
mp-764733,Li5Ni5O9F,0.042300000000000004,0
mp-19490,PrTl(MoO4)2,3.4692,0
mp-1043170,CaCo(GeO3)2,1.9853,0
mp-20461,BaPbO3,0.1924999999999999,0
mp-1019362,ThBiTe,0.0,0
mp-23112,AsS3(ClF2)3,0.06090000000000001,0
mp-558583,AsS6N5F6,1.7912,0
mp-1017173,RbMg6Nb,0.0,0
mp-1943,GaSe,1.2353999999999998,0
mp-20596,U(SiNi)2,0.0,0
mp-7784,SbAsO4,3.0829,0
mp-2213,FeNi,0.0,0
mp-26701,Li3Sn2(PO4)3,2.4793,0
mp-557001,RbSO4F,2.4272,0
mp-3635,LiBO2,5.226,0
mp-20560,CeS,0.0,0
mp-38194,YOF,5.6328,0
mp-18772,Na4Mo(NO)2,2.2032999999999996,0
mp-567713,Nb3TeI7,0.47799999999999976,0
mp-560853,Tb3Si2S8I,2.4541,0
mp-633158,NaTeH6O6F,3.5953,0
mp-573109,Sm2Se5O13,3.6065,0
mp-771348,LiZn6Fe17O32,1.3452000000000002,0
mp-1019270,Ta2TiN3,0.0,0
mp-999396,Nb3Ni,0.0,0
mp-849412,V6O5F19,2.0450999999999997,0
mp-867122,Ac2CuSi,0.0,0
mp-998759,TlCdF3,3.7001999999999997,0
mp-504941,Sc2V3Si4,0.0,0
mp-1282,VC,0.0,0
mp-559063,CsBC3NO2F9,3.4032,0
mp-17706,Zr5Ge3,0.0,0
mp-560366,XeF6,2.7851,0
mp-775,Er5Si4,0.0,0
mp-29357,Zr6CCl14,1.2812,0
mp-558950,AgAsO3,0.49849999999999994,0
mp-696283,H4S4N6O,2.2104999999999997,0
mp-7572,MgSO4,5.4889,0
mp-708,LaAs,0.0,0
mp-974565,ReP3,0.0,0
mp-1049241,Ba2YFe2F11,3.7986999999999997,0
mp-1044081,CaCuBiO5,0.8046000000000002,0
mp-637427,PrIn2Pd,0.0,0
mp-4377,K2TbF6,0.0,0
mp-17413,Ti3Rh5,0.0,0
mp-567224,Mg(SiB6)2,1.9315000000000007,0
mp-40186,LiCaPrTeO6,3.3167,0
mp-29005,U(Cr3P2)2,0.0,0
mp-753815,CaY2O4,4.1546,0
mp-29811,Hf3P3Pd4,0.0,0
mp-13200,LuCuSn,0.0,0
mp-29777,Er2Ge5,0.0,0
mp-541513,NaGdTiO4,2.2356000000000003,0
mp-714896,Cr3O,0.0,0
mp-680205,PbI2,2.3538,0
mp-33508,TaGaO4,3.1573999999999995,0
mp-39,Tl,0.0,0
mp-3924,LiNbO2,1.5794999999999995,0
mp-1045913,Ca2Cr9O13,0.44099999999999984,0
mp-19768,NiAsRh,0.0,0
mp-1019710,CsB5O8,5.9528,0
mp-6653,Ba2ErNbO6,2.856,0
mp-643575,CoH12(BrO7)2,1.9233,0
mp-989559,Cs2NaLiF6,0.0,0
mp-705896,MgVFeMo3O14,2.3731,0
mp-552056,PbCClO2,2.9095999999999997,0
mp-972241,Ti2ReTc,0.0,0
mp-862906,PmGaCu2,0.0,0
mp-574159,CeAs2Pd3,0.0,0
mp-569745,YbMgSn,0.0,0
mp-973777,Hg3F,0.0,0
mp-849667,Li4Co5O9F,0.23859999999999992,0
mp-570653,LaFe5H12,0.0,0
mp-866827,Ca3Sn2S7,0.4588000000000001,0
mp-1749,CaAl4,0.0,0
mp-36988,Ca(AlSe2)2,2.8458,0
mp-557448,Ba2CaUO6,2.1961000000000004,0
mp-505513,Nd(Re2Si)2,0.0,0
mp-22618,Y(CuO2)2,0.0,0
mp-20889,HfSnPt,0.0,0
mp-861499,Pr2CuIr,0.0,0
mp-14213,Sr4GeP4,1.0529000000000002,0
mp-1048854,HoZn(SnO3)2,0.0,0
mp-30405,Li2SnAu,0.0,0
mp-570002,C,3.0059000000000005,0
mp-1057,Al3Ni2,0.0,0
mp-765948,Li4Nb3Cr2Fe3O16,0.16690000000000005,0
mp-17784,CaTiGeO5,2.9242999999999997,0
mp-16472,YbTlS2,0.0,0
mp-771055,EuZrO3,0.26510000000000034,0
mp-1423,HoC2,0.0,0
mp-24333,UH12(ClO2)3,0.5445000000000002,0
mp-1030614,Te6Mo3WSe2,0.3473000000000006,0
mp-12884,Hf5Te4,0.0,0
mp-4744,Ca(NiAs)2,0.0,0
mp-1603,TmGa3,0.0,0
mp-771342,Gd2P4O13,2.9666,0
mp-10525,NaLi2N,2.1346999999999996,0
mp-567492,Ce2WC2,0.0,0
mp-743577,FeH12C2S2(O2F)6,4.0772,0
mp-672227,CaZn13,0.0,0
mp-975886,PrSmZn2,0.0,0
mp-19226,NaFePO4,3.8275,0
mp-556250,KSrB5O9,5.1442000000000005,0
mp-14763,Ca3MnN3,0.0,0
mp-861694,CoPO4,1.1681,0
mp-4112,Tl2SO4,3.7965,0
mp-38684,Li2MgCl4,5.2764,0
mp-753863,Li2Ti2S5,1.1803000000000003,0
mp-22600,Sc3P2,0.0,0
mp-607409,Hf5CuPb3,0.0,0
mp-24505,MgAl2P2(HO)18,5.0097000000000005,0
mp-12022,HgB4O7,1.7956999999999996,0
mp-770846,Ba3Sn2O7,1.6702999999999997,0
mp-756277,Er3TaO7,3.6189,0
mp-771911,Ni3(PO4)2,3.3564999999999996,0
mp-29342,Ca3PCl3,1.8419000000000003,0
mp-20521,ScInPt2,0.0,0
mp-973968,KNaO3,0.0,0
mp-504805,Cs(Zr3I7)2,0.0,0
mp-1041443,Cr4O9,0.18369999999999997,0
mp-21157,TmNiGe,0.0,0
mp-1043188,MgV(GeO3)2,0.16330000000000044,0
mp-754646,Dy2Ge2O7,2.9711,0
mp-10782,RbTbSe2,1.9336000000000002,0
mp-942733,Li7La3Zr2O12,4.450799999999999,0
mp-128,Ge,0.0,0
mp-29993,TaAgF6,3.5549999999999997,0
mp-1017579,In2Au3,0.0,0
mp-10159,K3Sb,0.6773,0
mp-9086,CsDyS2,2.1448,0
mp-1510,Nd2Fe17,0.0,0
mp-5170,NdCoSi2,0.0,0
mp-1046228,Mg(SnO2)4,0.45559999999999956,0
mp-32899,Li2S,1.9737,0
mp-13452,BePd2,0.0,0
mp-1048399,CaNiP2O7,4.018800000000001,0
mp-770808,LiB2SbO5,2.8864000000000005,0
mp-11784,LaYbSe3,0.0,0
mp-541177,GdVO3,0.0,0
mp-973622,K3Sr,0.0,0
mp-973004,ScRu3,0.0,0
mp-561703,AuCClO,3.0553999999999997,0
mp-560136,Cu3B4Pb2O11,0.0,0
mp-21872,PrLuO3,4.8751999999999995,0
mp-13413,ThCu5Sn,0.0,0
mp-675562,K2ThF6,6.6619,0
mp-696216,HS3N,2.7266,0
mp-975990,NaLiO3,0.0,0
mp-770563,Mn3(PO4)2,2.8617,0
mp-673645,Mo7S8,0.0,0
mp-703591,Ba5B20(H2O19)2,0.10799999999999998,0
mp-10178,LiMgP,0.0,0
mp-861293,Li8Ni(O2F)2,3.012,0
mp-20740,Tl4Te3Pb,0.11010000000000009,0
mp-772790,Er(Bi3O5)4,0.0,0
mp-865473,VBr3,0.0,0
mp-632808,BaLiH3,1.1987,0
mp-542429,Mg3Rh,0.0,0
mp-540033,LiMnP2O7,0.9387000000000001,0
mp-631530,Hg2BCl,0.0,0
mp-3335,Sm2Ti2O7,2.7404,0
mp-1047720,Ca(NiO2)2,0.0,0
mp-10924,Mg(Co3P2)2,0.0,0
mp-657543,SrAl2(SiO4)2,0.8165,0
mp-22758,U(SiIr)2,0.0,0
mp-17466,Hf5Sb3,0.0,0
mp-997159,CrAuO2,1.0618000000000003,0
mp-4820,ZrSiO4,4.4661,0
mp-15681,CrAs2,0.0,0
mp-604914,VSe,0.0,0
mp-15896,Cu2SiSe3,0.24020000000000064,0
mp-754405,Ce2TiO5,0.0,0
mp-561233,Sm9(SbO)5,0.0,0
mp-685077,Fe2Te3,0.0,0
mp-92,Si,0.0,0
mp-849466,Mn3O5F,0.0,0
mp-20346,TbInCo2,0.0,0
mp-6621,Ba2ErRuO6,0.07299999999999995,0
mp-8487,CaSbPt,0.0,0
mp-19806,USiIr,0.0,0
mp-962066,NaLiTe,1.8635999999999997,0
mp-14368,SbAsO5,1.7419999999999998,0
mp-685403,Tl3(V3S4)8,0.0,0
mp-644527,LiY2Ti2S2O5,0.0,0
mp-1007657,HfRu3,0.0,0
mp-557892,BaLi(BS2)3,2.8639,0
mp-754826,CsScO2,2.9595000000000002,0
mp-995227,H6PbCI3N,1.594,0
mp-677454,P6(Pb2O5)5,2.5131999999999994,0
mp-3919,KBO2,4.1301000000000005,0
mp-22191,HfFeGe,0.0,0
mp-770341,Li4AlCr3O8,3.0815999999999995,0
mp-568540,Ag5Hg4P8Cl5,0.9769999999999999,0
mp-33444,Sr5(BiO4)3,0.0,0
mp-1030153,Te4MoW3S4,0.0,0
mp-769458,Li6Ti(BO3)3,0.025700000000000056,0
mp-557777,K2ScSi4O10F,4.7453,0
mp-782005,Li6TeO6,3.1117,0
mp-772811,Na2Ge2O5,2.9621,0
mp-601833,Fe13Ge3,0.0,0
mp-572598,Cs2Ge2S5,2.4156,0
mp-21452,Pb3O4,1.1583,0
mp-2866,Yb(FeSi)2,0.0,0
mp-1047792,Mg(BiO2)2,1.7151000000000005,0
mp-777785,LiFeF4,2.9978,0
mp-33569,Sr(LaSe2)2,1.8829000000000002,0
mp-8237,Ba(AsPd)2,0.0,0
mp-683987,Ce15B8N25,0.0,0
mp-28845,OsO3F2,2.3101,0
mp-976774,NiGe3,0.0,0
mp-675137,Cu4Sn7S16,0.0,0
mp-977107,NaRuO3,0.0,0
mp-5304,LaAlO3,3.4924999999999997,0
mp-962062,BaSrSn,0.0028000000000001357,0
mp-601286,TbCuPbSe3,1.2379000000000007,0
mp-1016872,CaIrO3,0.0,0
mp-28185,TaClF8,3.3874,0
mp-977436,ZrAlRu2,0.0,0
mp-18648,Zr2Ni12P7,0.0,0
mp-10923,Ca2Co12P7,0.0,0
mp-557590,NaNbO2F,0.0,0
mp-753610,BaCaI4,3.5645,0
mp-1003316,KMn4O8,0.0,0
mp-722729,Yb6Cl13,0.0,0
mp-504350,Sb(PO3)4,0.0,0
mp-1044880,Zn(SnO2)2,0.0,0
mp-738633,AgB10H26C6N,3.8864,0
mp-675683,Yb3(Sb7Te12)2,0.5365000000000002,0
mp-555458,Ba4Fe2S4I5,0.0,0
mp-574029,KC4N3,3.7393,0
mp-770399,Li6Ti2O7,2.4848,0
mp-28176,Te2PdCl10,1.5543,0
mp-558834,Eu2B5BrO9,0.8801000000000005,0
mp-561507,Ca4Al6O13,3.6188000000000002,0
mp-769585,Li4Mn3Co3(TeO8)2,0.0,0
mp-8934,Cs2SnAs2,0.7657999999999996,0
mp-10785,RbLuSe2,2.0335,0
mp-1019740,GaB3N4,3.7109000000000005,0
mp-6644,LiLa2RuO6,0.3146999999999993,0
mp-998985,TiAu,0.0,0
mp-705892,K2B10H9O,0.0,0
mp-11189,Li2MgSiO4,4.677099999999999,0
mp-977437,HoZrOs2,0.0,0
mp-1027474,MoWSe3S,0.7044000000000001,0
mp-625447,Pr(HO)3,3.7452999999999994,0
mp-567588,DyInRh,0.0,0
mp-767222,LiFe2(PO4)2,1.6011000000000002,0
mp-738663,Sn2H10C4N2O9F2,2.4831,0
mp-755314,Hf2N2O,2.0711000000000004,0
mp-765691,Mn6O5F7,0.0,0
mp-2616,NpO2,0.0,0
mp-3345,Cu3AsS4,0.0,0
mp-540,ScFe2,0.0,0
mp-753669,Hf(MnSn)6,0.0,0
mp-21873,NiAs2,0.0,0
mp-977586,MgSc2In,0.0,0
mp-989511,Cs2AsBrCl6,0.0675,0
mp-22119,U(PdS2)2,0.0,0
mp-4437,NdTe2Se,0.0,0
mp-866128,NaTmTl2,0.0,0
mp-639526,La2(ZnGe2)3,0.0,0
mp-6646,HoNi2B2C,0.0,0
mp-1782,ScSe,0.0,0
mp-652180,AuC5(SCl)4,0.0706,0
mp-24813,LaFe5H2,0.0,0
mp-38843,CaTa2O6,2.0946000000000002,0
mp-1568,K3P11,1.93,0
mp-631342,MnTcPd,0.0,0
mp-1018051,KTiS2,0.0,0
mp-1042798,Mn3Zn2O8,0.8693,0
mp-7506,Cr5Si3,0.0,0
mp-706976,PH4N(OF)2,5.1708,0
mp-756564,BaYCl5,4.0352,0
mp-865219,Dy2IrRu,0.0,0
mp-3268,YbB2Ru3,0.0,0
mp-27629,Cs3Sb2Cl9,2.3937,0
mp-560310,SbPOF8,4.6913,0
mp-1059,NdCd,0.0,0
mp-11310,CdNi,0.0,0
mp-541612,La4Os6O19,0.0,0
mp-769572,LiAlVO4,1.4085999999999994,0
mp-764661,Li3CoNi3O8,0.0,0
mp-571232,YbBr2,4.4692,0
mp-680058,InTeI7,1.734,0
mp-697730,Mn3(PO4)4,0.0,0
mp-13694,PrCuO2,2.3548,0
mp-27297,ReCl4O,0.647,0
mp-1044947,LaMgCrSbO6,0.0,0
mp-631535,BeW2Cl,0.0,0
mp-30269,HfGa2Ni,0.0,0
mp-39167,CaScAlSiO6,4.8888,0
mp-28179,NaTaCl6,2.902,0
mp-1028755,Te3W2S,0.0,0
mp-19792,Zr(Fe2Si)2,0.0,0
mp-571569,CdI2,2.3601,0
mp-952,MoPt2,0.0,0
mp-989527,Cs2NaNF6,2.8011999999999997,0
mp-557463,Na3ScSi2O7,3.7748000000000004,0
mp-707039,ZnH20S2(NO7)2,0.37449999999999983,0
mp-23951,Cs(BH)3,4.3266,0
mp-27241,K2SbCl5,3.2507,0
mp-774146,W(BrO)2,0.8926999999999999,0
mp-863717,Pm2NiRu,0.0,0
mp-480,ErPt2,0.0,0
mp-541668,SbP2O7,2.2392999999999996,0
mp-18373,ZnSe2O5,3.0412999999999997,0
mp-30454,ErBiPt,0.0,0
mp-19954,Al8Cr5,0.0,0
mp-757945,LiSnPO4,3.5738000000000003,0
mp-865441,TiAlPd2,0.0,0
mp-864951,MnAlOs2,0.0,0
mp-997014,PbAuO2,0.0,0
mp-28345,Zr6CI12,0.2801,0
mp-917,CaC2,2.1121000000000003,0
mp-755595,Er2TiO5,3.0380000000000003,0
mp-1434,MoS2,1.4223999999999997,0
mp-541081,NaMg2H3(SO4)2,4.898,0
mp-5972,CsPd2F5,0.25239999999999996,0
mp-762511,LiFe2C2O7,1.495,0
mp-1041519,Ca(AgO2)2,0.0,0
mp-555002,LiEr2S2O8F3,6.0868,0
mp-571519,CdI2,2.3711,0
mp-20112,Ni3Sn,0.0,0
mp-30722,ScHg3,0.0,0
mp-684477,Li2Sb(PO3)5,3.9673999999999996,0
mp-978286,Mg3Mn,0.0,0
mp-21839,Ba4Ge20Au3,0.0,0
mp-28676,S2O5F2,5.5878,0
mp-23733,Cu3H2(CO4)2,0.1766000000000001,0
mp-979042,Tm2BeOs,0.0,0
mp-15003,Ca3HfSi2O9,4.6779,0
mp-1045494,AlV2O4,0.0,0
mp-21215,InPd,0.0,0
mp-416,Cr3Os,0.0,0
mp-979982,YbPu3,0.0,0
mp-29775,Sr4PdO6,1.6164,0
mp-27249,CuCO3,0.0,0
mp-18089,Sr2HoCu3(PbO4)2,0.0,0
mp-31245,Tb2Te4O11,3.2575,0
mp-775761,AgClO3,2.925,0
mp-669348,NbTeCl9,2.2158,0
mp-1046592,TiZnSiO5,3.0146,0
mp-1041272,Zn(MoO2)2,1.0811000000000002,0
mp-559964,Ti6O11,0.0,0
mp-22620,CeZnSbO,0.0,0
mp-572794,ReP(Cl2O)3,1.8656000000000001,0
mp-864949,MnGaRh2,0.0,0
mp-18973,CoSe2O5,2.3763,0
mp-779491,BaP4O11,5.0699,0
mp-859129,Li5Si2BiO8,2.7600999999999996,0
mp-774419,MnCr3(PO4)6,0.0,0
mp-24538,K2H12Ru(SO7)2,2.0820999999999996,0
mp-560731,Ba2Ti9O20,2.7429,0
mp-754673,Er6Te2Ru,0.0,0
mp-764815,Li3Fe8(BO3)8,1.7432999999999998,0
mp-20106,Li2NdSb2,0.0,0
mp-1046820,Cu2O3,0.0,0
mp-779846,HoTa3O9,2.6798,0
mp-574651,CsSmMnSe3,0.504,0
mp-1002124,HfC,0.2957000000000001,0
mp-555974,Rb2U(SiO3)4,2.5082999999999998,0
mp-5900,Ba2ZrF8,5.9374,0
mp-9784,BaBAsO5,3.4465000000000003,0
mp-755783,Li2Ti(BO3)2,2.9039,0
mp-546320,Rb4CO4,1.8353,0
mp-17885,Ba2Ge2Te5,0.6240999999999999,0
mp-30614,ErZn12,0.0,0
mp-27645,ReCl5,0.0,0
mp-555980,Ba2Zn3(PO3)10,4.808199999999999,0
mp-695648,KNa6Al7Si9O32,3.8663,0
mp-867902,LiSiRh2,0.0,0
mp-703302,Cd9(InSe2)20,0.0,0
mp-9159,Li4NpO5,0.5886000000000005,0
mp-765775,Li2V2SiGeO10,1.8504999999999998,0
mp-697285,SrH10(SO4)2,4.1852,0
mp-1034270,RbMg14BO15,0.2942999999999998,0
mp-675353,Sm3(Bi7Te12)2,0.0,0
mp-771698,LaAlO3,4.4777,0
mp-834,ThN,0.0,0
mp-886,Ga2O3,2.0077999999999996,0
mp-755776,Rb4SiO4,2.5281000000000002,0
mp-866006,CaBi3,0.0,0
mp-766254,Cu(PO3)3,0.3478999999999999,0
mp-978987,SrGe3Pd,0.0,0
mp-13738,CsCd(PO3)3,4.316,0
mp-558294,Li3TaO4,4.5218,0
mp-34763,NaAlB14,1.5847999999999995,0
mp-558753,BiB2O4F,4.1884999999999994,0
mp-7611,Li2CaGeO4,4.1135,0
mp-638687,Ce2(SeO3)3,0.0,0
mp-601226,BaH2(CO2)2,4.1704,0
mp-757747,LiSn4(PO4)3,2.8044999999999995,0
mp-556778,BaTeF6,4.8353,0
mp-28135,NbXeF11,2.648,0
mp-17959,Nd2SiTeO4,1.7858999999999998,0
mp-985304,Cr(GaS2)2,0.0,0
mp-542737,TiZn2O4,2.3068999999999997,0
mp-21294,Y2In,0.0,0
mp-29689,Nb3TeI7,0.5113000000000003,0
mp-1009648,PtC,0.0,0
mp-39933,TaFeO4,2.2745,0
mp-676206,RbAg4I5,1.6335000000000002,0
mp-542613,GeS2,2.2429,0
mp-573877,Tm3(CuSn)4,0.0,0
mp-2459,YbIn,0.0,0
mp-28796,Sr5(AuO4)2,1.3224,0
mp-572546,CsRe(Cl2O)2,1.4875,0
mp-15379,K2SiO3,3.7441,0
mp-1048867,V2ZnO4,1.3646999999999996,0
mp-753102,La2Bi4O9,1.7390999999999996,0
mp-634062,RbCdH2I3O,2.49,0
mp-580941,AgI,1.3761999999999999,0
mp-23116,CuBiSeO,0.2728999999999999,0
mp-769399,BaTa4O11,3.4594000000000005,0
mp-1046197,Sr2Cu2TeO7,0.0,0
mp-770581,MgMnO3,0.536,0
mp-676541,Na4Cr13Se23,0.0,0
mp-1009488,NiN,0.0,0
mp-20674,Ba2YCu3O7,0.0,0
mp-631387,SnRuW,0.0,0
mp-16863,Rb3PS4,2.7367999999999997,0
mp-561066,TlS,0.8102,0
mp-10912,BaPr2FeS5,0.0,0
mp-768923,Bi4(B2O5)3,3.3396,0
mp-555532,CsBC3NOF9,2.5838,0
mp-998415,CsSeBr3,0.0,0
mp-19057,CaNiP2O7,3.8717,0
mp-3583,U2AsN2,0.0,0
mp-3916,K2(SO2)3,3.5394,0
mp-6318,KLiSO4,5.3179,0
mp-583615,K3In2As3,0.5968999999999998,0
mp-972328,Ti2IrRh,0.0,0
mp-541931,ZnCdC4(SN)4,3.4135999999999997,0
mp-18177,Ba3NbAs3O,1.0685,0
mp-766289,ZrU9O20,0.0,0
mp-1027570,Te2Mo3W(SeS2)2,0.0,0
mp-997033,AuBrO2,0.708,0
mp-541928,Sm3Re2O9,0.09010000000000051,0
mp-759849,Li2Ti6Zn3O16,2.8292,0
mp-781009,Li3Cr(PO4)2,2.8064,0
mp-559617,HfB2O5,4.411,0
mp-9230,KAlAs2O7,3.0235,0
mp-29887,Pr(ClO4)3,4.8822,0
mp-1043813,ZnBi2O5,0.33450000000000024,0
mp-17234,KTiP2O7,0.13399999999999945,0
mp-558129,KNaSi2O5,4.4523,0
mp-972662,Sm2Fe17C3,0.0,0
mp-554950,Hg3SbAsS3,1.6609000000000003,0
mp-560718,TeH12AuC4S3N,2.065,0
mp-27389,KSb2F7,4.1611,0
mp-23396,MoNCl3,1.6727,0
mp-999076,Ti2InNi,0.0,0
mp-1027107,TeMoWSe2S,0.0,0
mp-8125,LuCuSi,0.0,0
mp-30180,Al4Mo,0.0,0
mp-17037,Rb2Ti(SiO3)3,3.1377000000000006,0
mp-554412,RbTa(PO4)2,3.3525,0
mp-772856,CuHgO2,0.0,0
mp-29215,Te4P2O13,3.0667,0
mp-21276,PbS,0.46720000000000006,0
mp-10759,GeSe,0.05830000000000002,0
mp-13944,Li3AlN2,2.9371,0
mp-755770,Ba2LaI7,1.8566000000000003,0
mp-16623,DyAl7Au3,0.0,0
mp-19884,Mn3P,0.0,0
mp-568422,NaAg(CN)2,2.9395,0
mp-5051,Ho2Mo2C3,0.0,0
mp-558303,Ce3CuGeS7,0.0,0
mp-32742,U16N25,0.0,0
mp-560466,Na2FeCuF7,0.05650000000000002,0
mp-555271,Ba2Zn2ClF7,4.354,0
mp-1043975,LaMgFeWO6,2.3537,0
mp-3048,U2SeN2,0.0,0
mp-16613,AlAuO2,0.5888,0
mp-28726,KYF4,6.9097,0
mp-556512,S4N3O2F,2.1523000000000003,0
mp-16452,BaLa2ZnS5,1.4565000000000001,0
mp-772273,Li2MnH4(SO5)2,4.2489,0
mp-24517,Rb2CaH4,3.3032,0
mp-68,Sm,0.0,0
mp-755745,LiBi(BO3)2,0.9964,0
mp-17941,Na2B4O7,4.618,0
mp-556865,NaBe2BO3F2,5.9419,0
mp-685318,Bi15AsO25,2.3058,0
mp-656850,Ti2O7,1.1540000000000001,0
mp-557900,SbCSCl2F9,3.8,0
mp-29580,Ta9(CoS3)2,0.0,0
mp-3897,SmPS4,2.2148,0
mp-978975,TbYTl2,0.0,0
mp-11327,Rb2Se,1.7968,0
mp-1046066,Mn5O7,0.0,0
mp-673116,Bi5(PO4)6,0.0,0
mp-28489,Ca5(GaN2)2,0.0,0
mp-22803,Cr2CuS4,0.0,0
mp-1011260,EuFeO3,0.0,0
mp-5770,AgNO2,1.7726,0
mp-11852,NdCu2,0.0,0
mp-558465,LaAg(PO3)4,3.7647999999999993,0
mp-7298,Li(CuP)2,0.0,0
mp-6891,Sb2RuC6(OF2)6,4.7623,0
mp-570738,GaI2,2.3766,0
mp-755915,Li4Nb3TeO12,0.0,0
mp-32597,Bi13O20,0.3461999999999996,0
mp-560223,K2Se(SO3)2,2.9779,0
mp-8070,Li2BeSiO4,5.8679,0
mp-1018060,GaCo2Ni,0.0,0
mp-11673,Sc2(SeO4)3,3.5636,0
mp-772739,Fe2CoO6,0.0,0
mp-510030,Pb3(ClO)2,2.4273999999999996,0
mp-1020650,Sr3Ge2(B3O8)2,4.4198,0
mp-14481,Er(BRh)4,0.0,0
mp-657176,YbBeF4,6.546200000000001,0
mp-755040,Cu2O3,0.0,0
mp-777553,LiFeF4,3.3558,0
mp-774228,Co(IO3)2,2.5884,0
mp-774370,Li6Mn5Fe(BO3)6,2.6092000000000004,0
mp-614628,Na3Ca(BO2)5,4.4278,0
mp-1030247,Te6MoW3S2,0.0,0
mp-29516,Bi7RhBr8,1.0126000000000002,0
mp-754597,LuTlO3,0.6919000000000004,0
mp-559127,K2Zn2Si8O19,4.2179,0
mp-28513,Pb(ClO3)2,4.3237000000000005,0
mp-721053,Hg3H4S2O11,1.7372999999999998,0
mp-999274,RbNaH2,2.0716,0
mp-39123,Na3Zr2Si2PO12,4.2135,0
mp-1720,SmRu2,0.0,0
mp-980049,Yb3Re,0.0,0
mp-32566,Si3O,0.09609999999999985,0
mp-772228,CdP4O11,4.3777,0
mp-1048159,BaAlSn4O7,0.0,0
mp-5788,NaUO3,0.43100000000000005,0
mp-3470,MgSiO3,4.6484,0
mp-3923,Th2MnN3,0.0,0
mp-26446,Sn4(PO4)3,0.0,0
mp-752754,Hf2N2O,0.34830000000000005,0
mp-553901,H6RuN3Cl3O,1.8942,0
mp-760462,Li5Ti(SiO4)2,0.5455000000000005,0
mp-780865,Co3OF5,0.9779,0
mp-6721,Sr3LiRuO6,0.399,0
mp-706606,BH5CSN2,3.9122,0
mp-973599,Hg3As,0.0,0
mp-554376,Y4TiSi2(O3F2)3,2.7199,0
mp-568785,NaAl3NiCl12,1.2562,0
mp-29927,Pb7(BrF6)2,4.0573,0
mp-1041662,Te(WO4)2,2.3586,0
mp-1028622,Te4MoW3S4,0.03100000000000014,0
mp-866696,La3ScBeS7,0.9362999999999992,0
mp-675871,ErPaO4,3.199,0
mp-1042189,Ba2Sb3O8,0.0,0
mp-2088,CeAl2,0.0,0
mp-616597,ReHgO4,2.6922,0
mp-1884,Ca5Ge3,0.0,0
mp-27368,NaLi5Sn4,0.0,0
mp-975905,Mo3I,0.0,0
mp-680372,C,0.7132000000000001,0
mp-1047650,Zn(MoO2)2,1.0164999999999997,0
mp-29693,Rb2AgCl3,2.9649,0
mp-604378,Tb4InIr,0.0,0
mp-755902,Lu(HO)3,3.596,0
mp-2316,TmZn,0.0,0
mp-606,U3As4,0.0,0
mp-29124,Se2NCl5,2.686,0
mp-27907,Sb6Pb4S13,0.8506,0
mp-1006150,Eu3Re,0.0,0
mp-15120,RbFe2Se3,0.0,0
mp-780255,Gd3NbO7,2.282,0
mp-571531,Cs3Mo2I9,0.9283000000000001,0
mp-4934,Al2SiO5,4.992799999999999,0
mp-11372,ErSn3,0.0,0
mp-550895,K4CO4,1.5969000000000002,0
mp-2931,Li2TiO3,3.0339,0
mp-20384,CeAgAs2,0.0,0
mp-39033,Sr(NdSe2)2,1.7524000000000002,0
mp-31107,As2Pb8O13,2.0589999999999997,0
mp-850441,LiMn2P2H9O13,1.0564,0
mp-772525,Li6Fe(BO3)3,2.0524000000000004,0
mp-10322,BaHfN2,1.2537000000000003,0
mp-24307,CdH8C4(S2N3)2,3.2788,0
mp-23707,ReH12C4O5F,2.968,0
mp-722346,KYbP4(H4O9)2,0.0,0
mp-8406,Li3NdAs2,0.035800000000000054,0
mp-5178,V2CuS4,0.0,0
mp-18246,K6MnTe4,1.4227000000000003,0
mp-557828,HoPH5CO7,3.7117,0
mp-774106,Li3Fe2(SiO4)2,1.5111999999999999,0
mp-1044474,BaMg(WO2)4,0.0,0
mp-864664,Na3Np(HO3)2,1.2524,0
mp-18182,CsNa3TiO4,3.4808,0
mp-1048061,MgW4O9,1.0433,0
mp-20804,Rb(InAu2)2,0.0,0
mp-971958,Tm3P,0.0,0
mp-998420,KCrCl3,0.0,0
mp-565597,Cu3P4S4I3,1.6301999999999999,0
mp-762163,Li3TiMn2O6,0.0,0
mp-1029565,Na3W2N5,2.2342000000000004,0
mp-410,YbPt2,0.0,0
mp-607436,ReCl3O2,1.8464,0
mp-505820,NiPS,0.0,0
mp-753572,Li2Cu3F8,0.11539999999999995,0
mp-19379,CoSO4,2.7685999999999997,0
mp-1016836,ZnOsO3,0.0,0
mp-11275,Be2Re,0.0,0
mp-11661,Zr3N4,0.6807999999999996,0
mp-677177,RbAl6H20N5F24,3.1874000000000002,0
mp-567320,La5C2I9,1.4393000000000002,0
mp-975199,RbSr3,0.0,0
mp-24052,CaMgNiH4,1.8729999999999998,0
mp-9770,Ag8GeS6,0.6102000000000003,0
mp-1013910,LiFe2P2O9,0.008000000000000007,0
mp-770546,Li2Mn2P2O7F2,2.8465999999999996,0
mp-622106,Ba5Pb3,0.0,0
mp-28922,Ca2Si5N8,3.3482000000000003,0