mp_id,formula,band_gap,fidelity
mp-567628,Rb2LiDyBr6,4.1868,0
mp-1043379,Cr2O3,0.5851000000000002,0
mp-770379,Tm2GeO5,3.3808000000000007,0
mp-10761,FeTe,0.0,0
mp-976344,Nd2ZnGa,0.0,0
mp-675750,Ca(Ga3Te5)2,0.9728000000000003,0
mp-542339,CsIn3,0.0,0
mp-1029294,LiSn2N3,0.8393999999999995,0
mp-981550,RbTmO3,0.0,0
mp-30613,ErSn2,0.0,0
mp-1008911,LiMnAs,0.0,0
mp-33684,Ti(FeO2)2,1.1230000000000002,0
mp-811,BaPt5,0.0,0
mp-1046808,Sr2YAlNi2O7,0.5647000000000002,0
mp-29369,Sb7F29,3.5953,0
mp-760078,Ba4Ti11O26,2.7188,0
mp-28911,BaReH9,3.8349,0
mp-23837,NdH3(CO2)3,4.1895999999999995,0
mp-1027278,Te3MoWS,0.0,0
mp-627557,CdI2,2.3549,0
mp-772221,Ba5La3I19,2.4886,0
mp-671510,Sc3Re2Si3,0.0,0
mp-557802,K2Be(Si2O5)2,4.6976,0
mp-29904,SbXe2F9,1.9809999999999999,0
mp-32027,Li2Mn3(P2O7)2,3.4753,0
mp-15652,Rh3(PbS)2,0.0,0
mp-7823,V2NiSe4,0.0,0
mp-735531,NiH8(ClO2)2,3.9693,0
mp-24073,Gd(HO)3,3.2235,0
mp-31931,LiMn4(PO4)3,2.7244,0
mp-30764,LiPt2,0.0,0
mp-571586,Nd(SiOs)2,0.0,0
mp-17921,NbSeOF7,4.5146999999999995,0
mp-865299,TmZnRh2,0.0,0
mp-571156,Mg(BH4)2,6.0799,0
mp-560043,KSb4F13,4.7449,0
mp-761148,Ti9SnO20,1.7902,0
mp-7656,Na5GaO4,2.2018,0
mp-23790,H4N2O3,3.0879000000000003,0
mp-17927,Ba(DyTe2)2,0.7862,0
mp-18302,Mn2MoP12,0.11270000000000024,0
mp-775784,Hf2N2O,2.091,0
mp-505543,Lu2CoB6,0.0,0
mp-29991,Bi2Te4Cl7,1.333,0
mp-21048,CrP,0.0,0
mp-2268,TbAg,0.0,0
mp-23645,KBiS(ClO2)2,4.179,0
mp-864795,Ac2SnHg,0.0,0
mp-1018042,UBi,0.0,0
mp-777889,Li4Fe(TeO4)3,0.0,0
mp-554799,VF4,2.2417,0
mp-687081,YbCoO3,0.0,0
mp-20258,GdIn3,0.0,0
mp-758327,Sr7Bi23O40,0.0,0
mp-19300,La2MoO6,2.7923999999999998,0
mp-28020,AlCuCl4,2.5112000000000005,0
mp-866660,K3P2AuSe8,1.2085,0
mp-2283,ZrCo,0.0,0
mp-3312,Cs(SbSe2)2,1.1176,0
mp-1041234,CaHo(NiO3)2,0.0,0
mp-12466,Fe(PdSe)2,0.0,0
mp-975291,RbLiO3,0.0,0
mp-22760,La(MnGe)2,0.0,0
mp-8969,Mg2Ni3P,0.0,0
mp-636731,Zr(MoO4)2,3.1318,0
mp-3441,Y(SiRh)2,0.0,0
mp-1020611,SrGe2(BO4)2,3.8130999999999995,0
mp-559489,K2ZrSi2O7,4.5246,0
mp-1023127,Ba4Cu3PbO9,0.0,0
mp-849325,SbH4NCl6,1.9250999999999998,0
mp-567354,TiCl3,0.0,0
mp-25262,TiO2,1.712,0
mp-1028,V3Te4,0.0,0
mp-989405,Cs2LiInBr6,1.5789,0
mp-1043241,MgW2O5,0.35329999999999995,0
mp-1048803,Al2NiO4,2.6571000000000007,0
mp-1044753,PrZnCr2O6,0.5162,0
mp-675585,Ti7Co3N10,0.0,0
mp-973895,Ni3H,0.0,0
mp-21032,BaIn2Pt,0.0,0
mp-620069,K3Mo2Cl9,0.9318,0
mp-975341,La3Mg,0.0,0
mp-683966,GaP3(NCl3)3,3.9061000000000003,0
mp-27820,B7H10,2.5117,0
mp-973071,Hg3As,0.0,0
mp-2998,BaTiO3,1.6669999999999994,0
mp-33365,CeGaO3,0.0,0
mp-1875,TeF6,4.3688,0
mp-1013543,Ca3AsN,0.0,0
mp-1912,ZnAg,0.0,0
mp-13740,AgAsS2,1.4968,0
mp-1044619,Mg(SnO2)2,0.0,0
mp-761579,FeCo3O8,0.0,0
mp-975397,RbBa3,0.0,0
mp-720912,KZnH4Br3O2,3.6805000000000003,0
mp-9125,Ca(SbO3)2,2.6942999999999997,0
mp-18951,LiFePO4,3.5132999999999996,0
mp-1027736,Te2MoWSeS,0.0,0
mp-662534,AgIrF7,0.0,0
mp-781082,SrCrO3,0.5876000000000001,0
mp-677780,Ca2MgSi2O7,4.233700000000001,0
mp-1041829,AlCo3F15,0.0,0
mp-561480,NaNiF3,4.610799999999999,0
mp-631555,MnVNi,0.0,0
mp-28091,In2(TeO3)3,3.0171,0
mp-9697,Cs6GaSb3,0.44110000000000005,0
mp-568419,Mg3Ir,0.0,0
mp-7792,YScS3,1.7711000000000001,0
mp-721293,Na4GeH28(Se2O7)2,2.0443,0
mp-23635,TlRe6Se8Cl3,1.4346999999999999,0
mp-27690,Sr3Zr2O7,3.0929,0
mp-772711,Na3SiBiBO7,0.0,0
mp-631543,AlInB,0.0,0
mp-974322,Ho3Mg,0.0,0
mp-27171,Hg2P2S7,1.7973,0
mp-626037,Si2H2O5,5.440300000000001,0
mp-14817,PrP5O14,5.3923,0
mp-560993,CaAl12Si4O27,5.236199999999999,0
mp-5159,LiGa2Pd,0.0,0
mp-1047380,Mg(SbO2)2,0.3266,0
mp-13654,Y3Sb4Au3,0.5757000000000003,0
mp-754453,LaTiNO2,0.5628999999999991,0
mp-400,NdAl2,0.0,0
mp-505552,Cd2Ru2O7,0.0,0
mp-542435,Li3ScN2,2.2440999999999995,0
mp-567379,Bi,0.0,0
mp-770904,Li3Mn(BO3)2,1.4244,0
mp-768665,LiBiB2O5,1.8355000000000001,0
mp-541819,Rb2Hg(BSe)9,1.8296999999999999,0
mp-141,Yb,0.0,0
mp-556564,SiO2,0.30200000000000005,0
mp-7505,K2P2Pd,1.0789,0
mp-10748,TaCu3S4,1.9231000000000003,0
mp-18952,Ca4Mn2O7,1.3693999999999997,0
mp-581263,Sr13Al6Si8O,0.0,0
mp-773509,VCr2O6,0.0,0
mp-971934,Zn3In,0.0,0
mp-861644,ThCdPt2,0.0,0
mp-554941,KRb2BiF6,4.7975,0
mp-540943,SeBr,1.7372999999999998,0
mp-31027,Sc3(ReSi2)2,0.0,0
mp-557163,TaPbF7,5.127800000000001,0
mp-753831,Cu2OF2,0.0,0
mp-1046077,Sr2YCr2GaO7,1.0365000000000002,0
mp-1029650,Na15Re7N19,0.0,0
mp-1025729,Te4Mo(WSe)2,0.017100000000000115,0
mp-861057,Ca2Tl2O5,0.8173999999999997,0
mp-19977,SmIn3,0.0,0
mp-977395,YbFeB4,0.0,0
mp-9561,VS2,0.0,0
mp-697974,SmP3H5NO10,5.369999999999999,0
mp-559027,SrH12C4S4(NO4)2,5.6657,0
mp-754876,SmAsO4,3.8516000000000004,0
mp-1008920,Mn2Ge,0.0,0
mp-107,Pu,0.0,0
mp-779161,Na4Bi2B4SO16,0.07789999999999997,0
mp-8654,PrSiRu,0.0,0
mp-31058,Er3InN,0.0,0
mp-542188,Cr(MoS2)2,0.0,0
mp-1025895,Te2MoW2(SeS)2,0.0,0
mp-6961,Sr(SbPd)2,0.0,0
mp-1632,NdB4,0.0,0
mp-696815,AlH4NF4,6.8114,0
mp-30300,Cs3As5O9,3.1355999999999997,0
mp-1043704,MgCr3(P2O7)2,2.0229,0
mp-557561,Sm6Si4S17,2.4769999999999994,0
mp-12342,CsNdZnTe3,1.3651,0
mp-30146,CaSn2F6,3.5026,0
mp-5920,LiAlGe,0.056400000000000006,0
mp-571371,CsK2BiCl6,3.9160000000000004,0
mp-631515,CaHfZn,0.0,0
mp-746030,NaFePO4,3.2918000000000003,0
mp-1020723,Sr2Ga2O5,2.9485,0
mp-19042,Ca3Mn2O7,0.2990000000000004,0
mp-28496,K2UCl5,0.1198999999999999,0
mp-780107,Li7Cr3Fe(PO4)6,1.5433,0
mp-762248,LiSb3(P3O10)2,2.8455,0
mp-720529,KH28S4N7O16,0.00759999999999994,0
mp-2523,PuPt3,0.0,0
mp-777002,Li4V5Cr3O16,1.0910000000000002,0
mp-8261,Ba3Yb4O9,0.0,0
mp-22869,ClO3,1.3649,0
mp-948,ZnTe,0.0,0
mp-672292,Gd3Se4,0.0,0
mp-27864,BF2,4.8995999999999995,0
mp-569696,La(AlGa)2,0.0,0
mp-695285,SrAlSi5N7O2,1.7336999999999998,0
mp-3274,NiGePd,0.0,0
mp-1018731,HoSI,2.7207999999999997,0
mp-11284,CaGa2,0.0,0
mp-553930,B2Pb6SO12,2.7033000000000005,0
mp-570071,Dy2Zn17,0.0,0
mp-1640,Ho2C,0.0,0
mp-1047030,Ca2Nb2CrO8,1.6063999999999998,0
mp-1030190,TeMoWSe2S,0.0,0
mp-11569,SmTl3,0.0,0
mp-1029251,LiRuN,0.0,0
mp-723049,BeH4NF3,6.1675,0
mp-677238,Th10N9F13,2.0872,0
mp-22908,BiCl3,3.3547,0
mp-632715,Cs3CeF6,0.26229999999999976,0
mp-1044575,CaNiBiO5,1.0012999999999999,0
mp-90,Cr,0.0,0
mp-568388,BiI,0.8279000000000001,0
mp-866117,HfZnAu2,0.0,0
mp-6459,CaMg(CO3)2,5.0091,0
mp-29699,TiNb3O6,0.5207999999999999,0
mp-560715,Sn5(PO5)2,2.6984999999999997,0
mp-23702,LiH2N,3.1357999999999997,0
mp-776456,Ti2O3,0.0,0
mp-762897,Li2V(PO4)2,1.2191,0
mp-1043121,MgMn4(CuO4)3,0.0,0
mp-29807,Hf27P16,0.0,0
mp-557040,Lu(PO3)3,5.666300000000001,0
mp-9655,Na4SnO4,2.0838,0
mp-570292,La7Os4C9,0.0,0
mp-697921,Mg5H8O9,3.5747000000000004,0
mp-569321,Mn2Ru(CN)6,1.9347999999999999,0
mp-29619,Sr2Bi,0.0,0
mp-2426,LiAg,0.0,0
mp-568909,Cs2MgCl4,4.9974,0
mp-13900,Sr(CuO)2,1.8082999999999996,0
mp-505141,Cs2SnS14,1.4665,0
mp-756888,La2(SiO3)3,4.3073999999999995,0
mp-8042,ZrGeO4,3.7395000000000005,0
mp-556066,Sr2LiSiO4F,4.7908,0
mp-19910,Ce2MgNi2,0.0,0
mp-677131,Ce9YO20,0.0,0
mp-571400,Dy3Se4,0.0,0
mp-6867,KCaCO3F,4.3468,0
mp-779783,Li4MnFe3(BO3)4,3.2005,0
mp-632401,B,0.0,0
mp-780454,SrCa2I6,3.7009000000000003,0
mp-505031,Cs4Cu3F10,0.11959999999999993,0
mp-8279,Ba(CdP)2,0.6793,0
mp-14089,TlCuS2,0.0,0
mp-31171,Zn2AgAu,0.0,0
mp-773137,KCaBi,0.8270000000000002,0
mp-973843,Pa2SbTe,0.0,0
mp-582084,CdI2,2.3746,0
mp-1018016,Ti2AlNi,0.0,0
mp-631539,BiBCl,0.0,0
mp-770853,Li2CoPO4F,2.6148000000000002,0
mp-13502,TmCoC2,0.0,0
mp-1766,TmS,0.0,0
mp-1009206,MnSn,0.0,0
mp-864801,YbO2,3.1093,0
mp-1006112,Na3Co,0.0,0
mp-958,Cr3Rh,0.0,0
mp-3932,Ca3Si2O7,4.4296,0
mp-1042158,Ca(WO2)2,1.5499999999999998,0
mp-31120,DyScO3,4.4572,0
mp-680061,Rb2Sn(GeO3)3,2.3752,0
mp-30586,HoInCu2,0.0,0
mp-760401,Nb3O7F,0.716,0
mp-972978,ScVO3,0.0,0
mp-707929,LiBH2C4O9,3.351,0
mp-9628,KCdF3,3.3579,0
mp-773438,Li5Cu(PO4)2,1.6448999999999998,0
mp-8727,Ba4PtO6,1.8015999999999996,0
mp-560051,RbSiBiS4,2.0817999999999994,0
mp-28368,TlAuCl4,1.7616999999999998,0
mp-541149,Cu4Bi7S12,0.0,0
mp-28234,CaAl12O19,4.319500000000001,0
mp-572409,Ga2RhC4Cl7O4,2.0192,0
mp-768078,Cr4Si4O13,1.3925000000000005,0
mp-570885,LaCoSb3,0.0,0
mp-765230,LiVOF3,1.5224,0
mp-754041,Gd2HfO5,3.1449000000000003,0
mp-849730,Na2Ti4O9,2.4246000000000003,0
mp-1008733,Ge,0.0,0
mp-5519,HoGeAu,0.0,0
mp-559904,NaLi3SiO4,4.4978,0
mp-707398,Mg2PHO5,2.3981000000000003,0
mp-771838,La4Al6O15,4.3641000000000005,0
mp-676628,K(V5S8)3,0.0,0
mp-675896,Ca2NdF7,5.2616,0
mp-849277,Li2CuP3(HO5)2,1.6397,0
mp-9205,KSeO2F,3.3213999999999997,0
mp-19036,Tm2V2O7,1.1145000000000005,0
mp-989782,Cu,0.0,0
mp-641534,Nd3CuSiSe7,1.3323,0
mp-1045389,Li(VS2)2,0.0,0
mp-777672,LiFeF3,3.0807,0
mp-773166,Li5Cu3(NiO5)2,0.0,0
mp-17265,Sr2CuGe2O7,0.0,0
mp-8639,Ru,0.0,0
mp-632539,TlInS2,0.8613,0
mp-28692,Cs2CuF6,0.0,0
mp-1040801,LaCrTeO6,1.2581000000000007,0
mp-754064,MnP2,0.0,0
mp-721086,Li2CuP6H20C2(N3O11)2,0.4155,0
mp-569996,Tb2InGe2,0.0,0
mp-974782,NdTlAg2,0.0,0
mp-743588,Mn3H24(O3F2)4,0.9821000000000001,0
mp-1042199,BaAlCuSnO5,0.0,0
mp-13903,ZnSnF6,3.7147,0
mp-863006,CsB2H5O6,5.0467,0
mp-557711,K3Nb3(BO6)2,2.3808000000000002,0
mp-17473,Na2Al2As3,1.1771000000000003,0
mp-650532,Cs2K2Cd3O5,1.2431,0
mp-567598,Dy7(TeIr)2,0.0,0
mp-540876,KTh2(PO4)3,4.5918,0
mp-773133,K3CuB2P4H3O17,0.7381,0
mp-1939,ErNi2,0.0,0
mp-23704,NaAlH4,4.6648,0
mp-1048266,MgCrP2O7,2.8125999999999998,0
mp-974372,Rh3Se,0.0,0
mp-778246,Li2Mn2(PO4)3,0.0,0
mp-4471,ScAlO3,4.591900000000001,0
mp-2564,SrMg,0.0,0
mp-864986,DyBr2,0.0,0
mp-383,Rb2Te,1.3732,0
mp-28214,TiBr3,0.01519999999999988,0
mp-776008,TiFe2Ni3(PO4)6,0.007099999999999884,0
mp-866649,NaSc(BH4)4,4.8658,0
mp-3998,LaTaO4,3.3866,0
mp-1001843,HoP,0.0,0
mp-980110,Th(NiSn)2,0.0,0
mp-6356,Cd2GaAgS4,1.0420999999999998,0
mp-574369,La2InCu2,0.0,0
mp-27394,CsSnCl3,2.9177,0
mp-4957,CaNbO3,0.0,0
mp-675895,La3Fe2S7,0.0,0
mp-1518,CeRh3,0.0,0
mp-561205,AgC4OF9,2.3671,0
mp-998866,C,0.0,0
mp-560424,AsC4S2Cl2O2F13,3.0753,0
mp-770545,LiAlCrO4,0.6509,0
mp-695511,Na2CaTi2(GeO4)3,2.5739,0
mp-768208,Li3SbS4,1.4459,0
mp-6850,Ba2CeC3O9F,0.029200000000000337,0
mp-3466,PrAlO3,4.1325,0
mp-733998,TbH12S2NO12,5.1568000000000005,0
mp-631344,NaOsSe2,0.0,0
mp-1022717,CeSe2,0.29170000000000007,0
mp-2076,ZrSe2,0.33099999999999996,0
mp-20883,Fe3Sn,0.0,0
mp-30938,PAuS4,1.3165,0
mp-680153,CdI2,2.3453999999999997,0
mp-973441,La(ErS2)3,1.0587,0
mp-773843,LiTi2(PO4)3,2.2960000000000003,0
mp-6425,Li3In2(PO4)3,3.7684,0
mp-581419,K3Nb2Cu3S8,1.8673000000000002,0
mp-768740,Li2Bi5B3O13,2.1380000000000003,0
mp-770521,Li4V3Fe3(WO8)2,1.0868000000000002,0
mp-757507,Sm3Bi5O12,2.5489999999999995,0
mp-625653,H9BrO4,4.0822,0
mp-27393,AlPd5I2,0.0,0
mp-560830,Nd3Si2ClO8,5.2091,0
mp-1043607,CaCo(Si2O5)2,2.6854,0
mp-21575,Pr3InSe6,0.6879000000000004,0
mp-555217,Dy3Se4O12F,3.7410999999999994,0
mp-20282,CsPbF3,3.3389999999999995,0
mp-1041901,Mn2ZnO4,0.030400000000000205,0
mp-567818,Sm(NiAs)2,0.0,0
mp-542951,Cs2NaHoCl6,5.2906,0
mp-1048795,MgTa2O6,3.0904,0
mp-1018145,MnSn,0.0,0
mp-21471,LiFeAs,0.0,0
mp-972549,SmLu3,0.0,0
mp-28049,BaBrCl,4.9288,0
mp-758201,LiTiP2O7,0.21780000000000044,0
mp-866816,CaSnS3,0.0,0
mp-761021,Li3Cu(TeO3)4,0.4291999999999998,0
mp-569970,ZrHg3(SeBr3)2,1.9367999999999999,0
mp-680772,Sb5IO7,1.2704000000000004,0
mp-8449,Rb2Li2SiO4,3.8516,0
mp-27508,Li6Br3N,2.0856999999999997,0
mp-775209,Li2MnNb3O8,0.047800000000000065,0
mp-756912,LiZnBO3,2.9774,0
mp-755558,BaLa2O4,3.5481,0
mp-631565,GaAs2W,0.0,0
mp-510125,Ce(Ni2Sn)2,0.0035000000000007248,0
mp-6231,Ba2ErSbO6,3.3776,0
mp-570531,NbP2NCl12,2.4276,0
mp-9881,KAuSe,1.8159999999999998,0
mp-557395,LiC2S2N(O2F3)2,5.9283,0
mp-558769,Na3Li4Th6F31,6.3088,0
mp-18559,LaSiNO2,0.0,0
mp-755053,Ga4SiO8,2.4052999999999995,0
mp-776615,Li4VCr3O8,1.8257000000000003,0
mp-775757,HfO2,4.016500000000001,0
mp-556837,AgAs(S8F3)2,2.7366,0
mp-5564,Pr(AgGe)2,0.0,0
mp-7167,SmRh3C,0.0,0
mp-766142,LiFe5O5F,0.9235000000000002,0
mp-23364,CsLiCl2,5.0329,0
mp-17396,SrNi5As3,0.0,0
mp-861245,LiAgF4,0.9450999999999998,0
mp-1019517,Ba4Mg(SiN3)2,1.5934999999999997,0
mp-16519,UAlNi4,0.0,0
mp-543011,ZnS,2.0396,0
mp-707227,K5H3S5O14,3.6559,0
mp-560535,K4Sr(SiO3)3,4.1609,0
mp-29920,Rb5Au3O2,0.8051000000000001,0
mp-30435,BaZn2,0.0,0
mp-567997,Sm3(CoGe2)2,0.0,0
mp-769296,AgH9O5,2.0934,0
mp-19492,LiMn(PO3)3,4.3259,0
mp-554159,Li2BeSiO4,5.5993,0
mp-12422,CoHgC4(SeN)4,0.7733,0
mp-555349,La2CO5,3.9487000000000005,0
mp-774233,Co(IO3)2,2.3532999999999995,0
mp-755948,Tm2TiO5,2.9529000000000005,0
mp-696,SiPt,0.0,0
mp-28134,Ba2As2S5,1.3668,0
mp-699412,B3H52C16(NO)12,0.002000000000000224,0
mp-8396,CsEuF3,0.0,0
mp-4800,Ca11(CN5)2,0.7760000000000002,0
mp-756878,NaYbO2,0.0,0
mp-976751,Nd3Zr,0.0,0
mp-973147,Mg5Sc,0.0,0
mp-9690,Ca(AlGa)2,0.0,0
mp-1046848,Mg2Nb2NiO8,3.2587,0
mp-554016,K4Ti2PO4F9,3.0556,0
mp-5673,NiMoP8,0.0,0
mp-769472,Li11(NiO4)2,0.0,0
mp-770715,Ga2WO6,2.8695999999999997,0
mp-556657,GdPH5CO7,3.1807,0
mp-696353,Al6C3N2,0.30159999999999965,0
mp-774456,InH11S2O13,3.9503999999999997,0
mp-616378,CsSnI3,0.5537000000000001,0
mp-1042691,Cu3(SbO3)4,0.0,0
mp-29821,Gd4B3C4,0.0,0
mp-850669,YTa3O9,2.7163000000000004,0
mp-7944,NaSb,0.6019000000000001,0
mp-558544,MoS2,0.0,0
mp-559560,Nd2Ti3(ClO4)2,2.9455,0
mp-775754,Li4Nb3V2Co3O16,0.4493999999999998,0
mp-570291,DyGa3,0.0,0
mp-129,Mo,0.0,0
mp-673168,SiO2,3.3914999999999997,0
mp-21178,U2Co3Si5,0.0,0
mp-780243,Li5Ti2Cu3O10,0.19169999999999998,0
mp-672260,PNCl2,2.1645,0
mp-1007918,DyAu,0.0,0
mp-5131,K2CoS2,0.0,0
mp-944271,K2Fe2(SO4)3,0.6839000000000004,0
mp-531175,Cd(GaO2)2,0.6883000000000004,0
mp-562569,CsPPbS4,2.3363,0
mp-989547,Rb2NaInCl6,3.0533,0
mp-557024,SiO2,5.6788,0
mp-1007637,KNaH2,2.5014000000000003,0
mp-560303,BaCa2C2(O3F)2,4.7298,0
mp-773500,LiMnCuO4,0.0,0
mp-974370,PtRh3,0.0,0
mp-30648,LiMg2Ga,0.0,0
mp-1046755,Mg2Nb2AgO8,0.0512999999999999,0
mp-755478,CdBiO3,0.762,0
mp-769204,Li7CuAs4ClO14,0.3601000000000001,0
mp-779738,Hf2N2O,2.0681000000000003,0
mp-14649,Tb2Ge2O7,3.7452,0
mp-24046,NaAlH24(SO10)2,5.3109,0
mp-721442,PH5(NO2)2,0.0,0
mp-684502,Sn2P3O10,0.3405999999999998,0
mp-977380,LiMg2Pd,0.0,0
mp-674367,Re6Pb5O19,0.0,0
mp-4458,Th(MnSi)2,0.0,0
mp-755256,LiBiB2O5,3.2969,0
mp-3870,Sr2Nb2O7,2.684,0
mp-15950,Li(SiNi)6,0.0,0
mp-1013553,Sr3AsP,0.0,0
mp-780239,Na6Sn2B4SO16,3.4322999999999997,0
mp-4359,Sr2PdO3,0.22710000000000008,0
mp-769390,Ca3Ta2O8,4.2097,0
mp-9488,SmOF,4.6648000000000005,0
mp-555484,VS2Br2N3,0.7769,0
mp-18771,Sr2CoWO6,1.6379000000000006,0
mp-6115,K2Zn2(SO4)3,4.3495,0
mp-542021,Sc2CrB2Rh5,0.0,0
mp-1029951,Te2MoW3(Se2S)2,0.5293999999999999,0
mp-505808,BaEr2CuO5,0.0,0
mp-7716,SbTe,0.03479999999999972,0
mp-764080,CoOF,0.0,0
mp-9747,B4PbO7,4.208499999999999,0
mp-1028939,TeMoWSe2S,0.0,0
mp-1009504,EuZnGe,0.0,0
mp-3237,Na2CuF4,0.8944999999999999,0
mp-971694,Ge3N2,0.37509999999999977,0
mp-1029815,KMoN2,0.0,0
mp-1046359,Ba2TlV2O7,0.0,0
mp-1008394,Cl2,2.2452,0
mp-975913,PrNbO3,0.0,0
mp-21105,PuSi2,0.0,0
mp-1043541,MgSi4NiO10,3.1467,0
mp-1018029,CuPd,0.0,0
mp-976414,Li3Zn,0.0,0
mp-5423,Pr(MnSi)2,0.0,0
mp-7492,LaBO3,4.0196,0
mp-1018675,DyS2,0.0,0
mp-676424,Sm(GdS2)2,0.0,0
mp-776663,Li4Ti2V3Fe3O16,0.8033000000000001,0
mp-556034,CO2,6.6688,0
mp-541636,KEr(PO3)4,5.4862,0
mp-3953,CaCO3,4.999499999999999,0
mp-567305,CeAl3,0.0,0
mp-759651,ScH6Br3N2,3.0655,0
mp-771241,Ta3AgO8,2.2966,0
mp-1042561,Ca2Sn3O8,2.0574,0
mp-1044010,ZnSnBiO5,0.044299999999999784,0
mp-989571,Cs2NaInCl6,2.9903999999999997,0
mp-505599,VNiSb,0.0,0
mp-774425,FeSb3(PO4)6,1.8466,0
mp-568029,Mg15Si2Ir5,0.0,0
mp-655141,S,0.8323,0
mp-19403,Ba2CaMoO6,2.258,0
mp-559270,RbBa4Sb3O,0.9396,0
mp-685109,Yb5S9,1.6761000000000004,0
mp-764502,Li3Fe4(BO3)4,1.6932,0
mp-22270,CoP,0.0,0
mp-555476,Na3OsO5,0.0889000000000002,0
mp-1045813,CaNi(PO3)4,4.3042,0
mp-5549,MgSnAu,0.0,0
mp-1043304,Sr2FeCu2O7,0.0,0
mp-1734,CaZn5,0.0,0
mp-1044164,MoPO5,0.8644000000000001,0
mp-774308,Fe5O7F3,0.0,0
mp-9033,Np(SiOs)2,0.0,0
mp-5982,La(NiAs)2,0.0,0
mp-22293,PrZnSn,0.0,0
mp-567855,RbGeI3,2.1987,0
mp-765718,LiCo2OF3,2.0858,0
mp-769171,SiGeO3,2.8185000000000002,0
mp-3363,Sc2Ni2Sn,0.0,0
mp-758115,Li2SnP2O7,4.0435,0
mp-697085,H2O,5.2928,0
mp-558435,KYb2F7,0.0,0
mp-770519,Li2AlVO4,2.2381999999999995,0
mp-865753,YbErPd2,0.0,0
mp-703673,YbVO3,0.3999999999999999,0
mp-32395,Li2Ni3(P2O7)2,3.7280999999999995,0
mp-13163,TbZnSn,0.0,0
mp-559257,AgTeO3,1.4211,0
mp-866138,LuSbRu2,0.0,0
mp-31100,CeIr3,0.0,0
mp-5339,CsNaTe,1.9689,0
mp-697692,LiCr(PO4)2,1.2457,0
mp-21446,BaPb3,0.0,0
mp-632734,H4N2O3,3.0482,0
mp-977562,NdCdAu2,0.0,0
mp-12889,ZrU3Sb5,0.0,0
mp-779900,Li4Co2Ni3O10,0.0,0
mp-850407,LiMnP(H6O5)2,4.1674,0
mp-7008,GaAg(PSe3)2,0.6647999999999996,0
mp-989544,Cs2SeClF6,0.0,0
mp-29194,Cs2Au2Se3,1.4632999999999998,0
mp-558557,BaLa4Cu5O12,0.0,0
mp-760782,Li5CuF6,1.6620000000000004,0
mp-9343,ErAgGe,0.0,0
mp-1044331,BaV4ZnO8,0.9247000000000005,0
mp-706543,BaP2(HO2)4,4.793,0
mp-11742,CsNdTe2,1.2919999999999998,0
mp-5348,MgCO3,4.9603,0
mp-10645,TbSe,0.0,0
mp-558428,Ba9Sc2(SiO4)6,4.3057,0
mp-754383,BaYb2O4,0.0,0
mp-1027292,MoWSeS3,0.6067,0
mp-9578,Ba3(AlSi)2,0.0,0
mp-684747,Bi2O3,1.6863000000000001,0
mp-22562,YS,0.0,0
mp-31067,Nd(ClO4)3,4.8807,0
mp-621928,LiEu(SO4)2,0.0,0
mp-567644,RbCu2Br3,1.6366000000000003,0
mp-779974,Hf2N2O,2.1572000000000005,0
mp-771005,LuTa3O9,2.6285,0
mp-1028441,WS2,1.6559000000000001,0
mp-1047983,Zn(SbO2)4,0.0,0
mp-1042339,YFe(WO4)2,1.7007000000000003,0
mp-12657,HfAl2,0.0,0
mp-22147,HfPbS3,1.452,0
mp-573202,K3Ta2Ag3S8,2.2936,0
mp-555076,KNaSnF6,5.1714,0
mp-774941,Li(NiO2)2,0.7825000000000002,0
mp-752783,Ca2CuB2(HO)12,0.6073,0
mp-571177,Hg3Te2IBr,1.2572,0
mp-999047,Ti2MnSi,0.0,0
mp-861616,LiSc2Ir,0.0,0
mp-19128,CoO,0.7120000000000002,0
mp-977205,NaTl2Pd,0.0,0
mp-775824,Zr2N2O,1.6551,0
mp-623836,ThNi,0.0,0
mp-774379,Cr4OF11,0.8695999999999999,0
mp-19318,Ag2MoO4,1.8720999999999999,0
mp-6702,Na7In4P9O32,3.7157,0
mp-557122,RbAu(SeO4)2,1.4106,0
mp-1041899,V2ZnO4,1.0650999999999997,0
mp-569348,TlGaBr4,3.5506,0
mp-558498,ZnGaNO,0.0,0
mp-569994,CdI2,2.3611,0
mp-601302,GdP2H9O11,3.1191,0
mp-623066,GaPt3,0.0,0
mp-642731,CeH3(CO2)3,0.0,0
mp-3336,LaGaO3,3.3762999999999996,0
mp-560898,NaPr(SeO4)2,3.3477,0
mp-567484,PtCl2,1.1359,0
mp-29741,Tl2(CdSb)3,0.04240000000000066,0
mp-1028570,Te2MoW3(Se2S)2,0.0,0
mp-556742,GaS,2.0122999999999998,0
mp-863016,RbF2,1.3380999999999998,0
mp-973292,MnBe3,0.0,0
mp-569768,NdInAg2,0.0,0
mp-4247,NaZnSb,0.0,0
mp-571414,KNa(BH4)2,6.1917,0
mp-754138,CsDyO2,2.8359999999999994,0
mp-643264,BaMg2FeH8,1.4470999999999998,0
mp-29036,Ba(YS2)2,1.7564000000000006,0
mp-555727,RbTb(PO3)4,5.492,0
mp-2599,NdN,0.0,0
mp-1027890,Mo2SeS3,0.5507,0
mp-743601,CaFeSn(PO4)3,2.4913,0
mp-6146,LiNbZnO4,2.7777,0
mp-777566,LiVF4,2.1702,0
mp-755568,GaBiO3,3.0525,0
mp-2746,MoC,0.0,0
mp-3074,KAgO,1.4716,0
mp-753477,Li3BiS3,0.9889999999999999,0
mp-974445,Re3Ge,0.0,0
mp-556989,ZnS,2.0305,0
mp-999141,TbAu,0.0,0
mp-30704,Nb5Ga3,0.0,0
mp-540672,Ti7Br16,0.0,0
mp-21069,YSiRu,0.0,0
mp-570480,TcBr4,0.6025,0
mp-600217,H10C5SeS2BrN3,2.3989000000000003,0
mp-754065,Hg(SbO3)2,0.5173000000000001,0
mp-673801,Ca3NdF9,6.1386,0
mp-650928,K3Nb7O19,2.1043000000000003,0
mp-10904,AlPt,0.0,0
mp-19871,PbAu2,0.0,0
mp-2654,Al2S3,2.817,0
mp-555113,Rb3Cu2(BiS2)5,0.5187000000000004,0
mp-553912,NaZr2(AsO4)3,3.7453000000000003,0
mp-861479,PrYMg2,0.0,0
mp-3707,CaGe2O5,2.4285,0
mp-1028463,Te2MoW3(Se2S)2,0.0,0
mp-13630,Rb3NaBe2F8,6.617800000000001,0
mp-1029044,Te2MoW3(SeS2)2,0.0,0
mp-570112,Cr3C2,0.0,0
mp-756156,Rb2ZrO3,3.5441,0
mp-14970,BaLaCuBO5,0.0,0
mp-1041993,MoO2,0.6663999999999999,0
mp-770786,Li3Ni(BO3)2,0.01849999999999996,0
mp-9076,NaTmS2,2.3621,0
mp-643907,Zr2FeH5,0.0,0
mp-625819,H8N2O,3.894,0
mp-554278,TiO2,2.6774000000000004,0
mp-31352,Er2(SeO3)3,3.9484999999999997,0
mp-7896,Cs2O2,1.6496,0
mp-675637,Ge5(Te4As)2,0.0,0
mp-6803,Sr3Pr2(BO3)4,4.5407,0
mp-620652,NaSr2AlP3,0.31220000000000026,0
mp-756509,BaLaI5,2.6608,0
mp-1045331,Mg(TiS2)2,0.0,0
mp-567369,Nd4Mg3Co2,0.0,0
mp-756347,Y2Pt2O7,1.4572000000000003,0
mp-757343,Ca4Bi6O13,1.7238000000000002,0
mp-777477,LiFeF4,3.1167000000000002,0
mp-555586,LuPO4,5.9929,0
mp-9325,Sr3MnN3,0.0,0
mp-1043133,CaCu3(NiO3)4,0.0,0
mp-556767,ClF3,2.5828,0
mp-423,GePd2,0.0,0
mp-762293,LiCoSiO4,1.2657,0
mp-756686,AlGaO3,2.6071,0
mp-972309,Ta2BN3,0.0,0
mp-23360,Zn(IO3)2,3.2505000000000006,0
mp-531006,CsB9O13,3.1242,0
mp-555596,K6Si2S6O,3.1497,0
mp-17228,K2Ni3S4,0.7067999999999999,0
mp-1046632,Sr2CoSO3,0.0,0