mp_id,formula,band_gap,fidelity
mp-615833,Cs2SbCl6,0.08889999999999998,0
mp-1045723,AlCo4(CuO4)3,0.3149999999999995,0
mp-31906,MnReO4,0.0,0
mp-27821,Ag3P11,0.8255999999999997,0
mp-1047615,WF5,2.2412,0
mp-573563,Sm(CoP)2,0.0,0
mp-1041051,CaV2O4,0.002100000000000435,0
mp-755459,Rb2O,0.3077,0
mp-776283,Li4NbCo3O8,1.4030000000000002,0
mp-19496,KV2SbO8,2.7796000000000003,0
mp-977534,ZrNbTc2,0.0,0
mp-542389,Dy(SiNi5)2,0.0,0
mp-777903,Li4Cr2Fe3Sn3O16,0.0,0
mp-15902,Li2Ca2Ta3O10,0.0,0
mp-30907,Dy3Co11B4,0.0,0
mp-674953,Cu2GeTe3,0.0,0
mp-8914,SrGaSn,0.0,0
mp-11859,La(SiAu)2,0.0,0
mp-35612,PuOF,0.0,0
mp-13459,NaCdSb,0.0,0
mp-983602,CdAg2Au,0.0,0
mp-559959,Rb2CoF4,0.0,0
mp-973948,LiHf,0.0,0
mp-7744,LiSO3F,5.7916,0
mp-756276,CeHfO4,1.7957,0
mp-775007,SbP6(WO8)3,0.0,0
mp-1703,YbZn,0.0,0
mp-975383,RbCa3,0.0,0
mp-647629,YbMoClO4,0.0,0
mp-1048542,Nb2ReO8,0.03420000000000001,0
mp-170,HoCd,0.0,0
mp-18130,Nd2Si2O7,4.6637,0
mp-622848,Sm2Ga9Ru5,0.0,0
mp-643743,CuHClO,0.0,0
mp-977427,Zn2PtRh,0.0,0
mp-29019,Rb3IO,0.6342999999999999,0
mp-1027339,Te2Mo2SeS,0.13559999999999972,0
mp-977391,LiNd2Os,0.0,0
mp-864654,Zn2NiRh,0.0,0
mp-18937,V2O3,0.47609999999999975,0
mp-29684,La5Sb3Br,0.0,0
mp-4284,Ho2CdSe4,0.6088,0
mp-568896,La(AlBr4)3,2.6083,0
mp-31614,Li3Co3(PO4)4,0.7201,0
mp-1009639,PrN,1.5598,0
mp-776165,AgAuO3,0.24230000000000018,0
mp-2470,DyS,0.0,0
mp-10175,KCdF3,3.1006,0
mp-15964,Hf3Sb,0.0,0
mp-5112,Pr(CoSi)2,0.0,0
mp-2317,LaNi5,0.0,0
mp-639910,Y(Sn3Ru2)2,0.0,0
mp-11281,Be2V,0.0,0
mp-763059,LiV(CO3)2,1.8881000000000001,0
mp-504910,Sr(BrO3)2,4.1387,0
mp-29396,Cu2PbO2,0.6290000000000004,0
mp-540991,BaNi9As5,0.0,0
mp-625890,H5IO6,1.6184,0
mp-1043265,ZnFe2O5,0.0,0
mp-1030331,Te8Mo3W,0.5270000000000001,0
mp-787,U3P4,0.0,0
mp-1027168,Te4Mo3W(SeS)2,0.2366999999999999,0
mp-20133,NbCrN,0.0,0
mp-21325,KO2,0.1116,0
mp-624221,Ge3Rh5,0.0,0
mp-776167,CeAlO3,0.0,0
mp-1041181,MgSn3P3O13,0.0,0
mp-972352,YbMg,0.0,0
mp-1028539,Te2MoWSe2,0.03880000000000017,0
mp-772030,LiTiO2,0.0,0
mp-771508,Li6Fe3Sb3O16,0.05879999999999974,0
mp-746817,NaV2P2(H4O7)2,0.0,0
mp-5063,YAl3Ni2,0.0,0
mp-766449,Li3TiSiO5,0.02629999999999999,0
mp-3721,SrHfO3,4.0578,0
mp-12627,Nb3S4,0.0,0
mp-6779,Ba2Pr(CuO2)4,0.0,0
mp-761252,RbPH3O4F,5.7119,0
mp-12669,Dy2SO2,3.0076000000000005,0
mp-779125,DyP5O14,5.3851,0
mp-1042787,ZnCrAs2O7,0.6116000000000001,0
mp-8753,K4HgP2,0.9356000000000001,0
mp-568555,SmSi2Rh3,0.0,0
mp-756655,TiO2,2.4317,0
mp-561259,Na3NbOF6,5.0991,0
mp-6179,KLiSO4,5.3221,0
mp-759413,ZnPH4NO4,4.0772,0
mp-1569,Be2C,1.1636999999999995,0
mp-557018,Cs(CoS)2,0.0,0
mp-1029385,Li2SnN2,1.6966999999999999,0
mp-29630,Li7Ge2,0.0,0
mp-4967,MgSO4,5.5304,0
mp-38816,Mg(TiS2)4,0.0,0
mp-28610,CsAgCl3,0.0,0
mp-569282,LiCa10MgSb9,0.9226000000000001,0
mp-530850,Ta2CuO6,0.020300000000000207,0
mp-999192,SiNi,0.0,0
mp-861886,LiDyHg2,0.0,0
mp-4266,KAsF6,4.9494,0
mp-976378,La3Sn4,0.0,0
mp-972439,Zn3(PO4)2,2.9952000000000005,0
mp-19926,La2Be2GeO7,4.114299999999999,0
mp-775102,Li7Fe3Co(PO4)6,0.0,0
mp-1028832,MoW(SeS)2,0.5540000000000003,0
mp-631571,Bi2OsAu,0.0,0
mp-23671,LaNi5H7,0.0,0
mp-761415,CuNi3O4,0.0,0
mp-19418,VCrO4,1.9112,0
mp-758655,H8C2BrN,4.6619,0
mp-555941,AlPO4,5.671200000000001,0
mp-1028933,TeMoWSeS2,0.0,0
mp-708034,H13Se2N3O8,1.0547,0
mp-695403,Ba2La2MgTi3O12,1.9234,0
mp-764801,Li2Cu5F12,0.0,0
mp-694,VSe2,0.0,0
mp-554581,KSmP2S7,2.6285000000000003,0
mp-2103,CuAu3,0.0,0
mp-29085,Sr5Zr3F22,5.3637999999999995,0
mp-30751,Al13Co4,0.0,0
mp-29639,Te7Pd20,0.0,0
mp-973276,HoLuCd2,0.0,0
mp-864629,Pm2TlCd,0.0,0
mp-758635,UH12S2O15,2.203,0
mp-645,TbP,0.0,0
mp-17768,Nb3Cr3C,0.0,0
mp-777902,Ti3Mn2Cu(PO4)6,0.0,0
mp-976076,NaAc2Sn,0.0,0
mp-27191,Zr9S2,0.0,0
mp-642740,CsLi(H2N)2,1.9969999999999999,0
mp-778743,Li5Cu(PO4)2,1.7069,0
mp-27855,H3I3N2,0.8184,0
mp-677195,Nd10Si10BrN17O9,2.9445,0
mp-30779,SmMg3,0.0,0
mp-866211,Lu2CdIn,0.0,0
mp-555933,Na2P2PbO7,4.2885,0
mp-27407,Ca12Be17O29,3.6698999999999997,0
mp-30221,Ba5P5I3,0.0,0
mp-5887,EuNiGe,0.0,0
mp-997394,NbAgF6,2.8552999999999997,0
mp-766258,Y13Tm3O24,3.9909999999999997,0
mp-27580,Zn3(AsO3)2,3.5393,0
mp-30801,NdZn5,0.0,0
mp-768735,Ba2SrI6,3.3889,0
mp-3108,Lu(SiRh)2,0.0,0
mp-510439,In2Pt3,0.0,0
mp-761872,Na2Sn2O3,0.4260999999999999,0
mp-17166,K2B4O7,4.821,0
mp-998427,BaZrSe3,0.3725999999999998,0
mp-1019091,LaSe2,0.0,0
mp-1027765,TeMo2SeS2,0.0,0
mp-13897,K3UF7,0.7939999999999996,0
mp-20939,PrPb3,0.0,0
mp-1041679,W3O8,2.7281999999999997,0
mp-496,SrSi2,0.0,0
mp-770632,Li3CrO4,1.1236000000000002,0
mp-756251,Ba2LaCl7,3.3138999999999994,0
mp-26173,LiBi3(PO5)2,3.3956999999999997,0
mp-976724,Hf(VH2)2,0.0,0
mp-568195,U6Mn,0.0,0
mp-553974,Ba7Fe6CuF34,0.6143000000000001,0
mp-975390,RbCa3,0.0,0
mp-866639,KSr2Cd2Sb3,0.2028000000000003,0
mp-15269,Sr3CdIrO6,0.0,0
mp-34022,Mg2SnO4,2.5338,0
mp-13549,CeZnAu,0.0,0
mp-18876,K3CrO8,1.7840999999999998,0
mp-1029231,Te4MoW3(SeS)2,0.0,0
mp-3618,Sc2FeSi2,0.0,0
mp-1043786,LaMgTiFeO6,2.0176999999999996,0
mp-8876,Ca4Al6SO12,3.7266999999999997,0
mp-616476,FeS,0.0,0
mp-861976,PaGaFe2,0.0,0
mp-2877,Nd(CuSi)2,0.0,0
mp-24733,NaZnP3(H4O5)2,5.668799999999999,0
mp-505554,Sc(FeSi)2,0.0,0
mp-767820,Li4V8O13F3,0.9380999999999999,0
mp-30784,Mg2Zn11,0.0,0
mp-1044751,Pr(WO3)2,1.6166,0
mp-639755,Rb,0.0,0
mp-3817,La2Au5F21,1.8445,0
mp-567807,TmZrSb,0.0,0
mp-10553,Mg(C2N3)2,4.6077,0
mp-1273,CsGe,1.3382999999999998,0
mp-650029,Fe3WC14(SO7)2,1.5415,0
mp-16780,KBaNbS4,2.0731,0
mp-673101,LiSn4(PO4)3,3.2620999999999998,0
mp-696740,CaCO3,1.5162000000000004,0
mp-16753,LuCuPb,0.0,0
mp-10602,Sm3GaC,0.0,0
mp-1023931,TeWS,0.0,0
mp-780098,LiCoSnO4,0.3744000000000005,0
mp-5918,Hf2NiP,0.0,0
mp-763507,LiCoGeO4,1.3635,0
mp-18124,KAlCuF6,0.08090000000000003,0
mp-560434,K2SN2O5,3.2988999999999997,0
mp-1028910,Te4MoW3(SeS)2,0.0,0
mp-2967,La(CoB)2,0.0,0
mp-572442,Cs3Nd(PS4)2,2.1845000000000003,0
mp-1018115,PbS,1.3589000000000002,0
mp-974066,Nd3Sm,0.0,0
mp-24640,ErH3(SO4)3,5.494300000000001,0
mp-542013,Rb4Zr3Se14,1.4609,0
mp-1029422,NbZn2N3,2.1411,0
mp-560870,BaGa2B2O7,3.9802999999999997,0
mp-644226,BaH2C2O5,3.1714,0
mp-602393,La4Ni3Pb4,0.0,0
mp-559053,NaY(SeO3)2,4.1636,0
mp-865111,NaSmAu2,0.0,0
mp-1018692,ErTe2,0.0,0
mp-644758,Fe2Mo4N,0.0,0
mp-555522,EuPH5CO7,0.0,0
mp-19821,Cr2GeC,0.0,0
mp-30876,Zr3Sn,0.0,0
mp-510007,KPuP2S7,0.036900000000000155,0
mp-22250,Mg2SiB2Ir5,0.0,0
mp-558946,BaSbSe2F,1.3342999999999998,0
mp-7429,Ca(ZnSb)2,0.0,0
mp-672698,GeTe,0.0,0
mp-780175,Li4Fe3P4(HO8)2,3.8515,0
mp-972831,SiGeN2O,3.6459,0
mp-643043,RbHO,3.1022,0
mp-21099,K2Pb(SO4)2,4.436299999999999,0
mp-29883,Rb3PbCl5,4.2828,0
mp-20811,UCoSi,0.000700000000000145,0
mp-9201,K4Ge2Au7,0.0,0
mp-6015,LiSiNO,5.2543999999999995,0
mp-1008617,YbAg2,0.0,0
mp-758140,LiTi(PO3)4,0.19759999999999955,0
mp-567389,Li2ZnGe,0.0,0
mp-759198,Li2AgF3,1.8653,0
mp-611,Ag3Sn,0.0,0
mp-13381,CeZnPd,0.0,0
mp-1047337,Mg(MoO2)2,1.8999000000000006,0
mp-1041271,BaV4O8,0.0,0
mp-558829,Cs3Yb(SO4)3,0.0,0
mp-674993,KPb2Cl5,3.3836,0
mp-561443,Ba3(PS4)2,1.9872000000000005,0
mp-1028653,Te4MoW3Se4,0.2661000000000002,0
mp-1016108,TiZnN2,2.342,0
mp-560614,KLiSO4,5.260300000000001,0
mp-767393,Li15Ti11Nb5O42,2.2795,0
mp-27417,Li3InO3,2.8858000000000006,0
mp-672958,LiSb(PO3)4,4.0474000000000006,0
mp-9845,RbCaAs,1.3010000000000002,0
mp-27484,Tl2O,0.5714000000000001,0
mp-560058,Li9Ga3P8O29,3.3283000000000005,0
mp-773512,Tm2WO6,3.7668999999999997,0
mp-15986,Hf(CuP)2,0.0,0
mp-1046266,MgCoO2,1.0034,0
mp-755751,BaYF5,6.908099999999999,0
mp-1020658,NaB(SO4)2,6.0208,0
mp-865445,Lu2AgAu,0.0,0
mp-6174,Mg2Al4Si5O18,4.8175,0
mp-552120,YClO,4.270700000000001,0
mp-705553,Fe23O25,1.2771000000000003,0
mp-22645,PrSnPd,0.0,0
mp-24367,Na2AsH15O11,4.1686000000000005,0
mp-1044794,BiPO4,3.0004,0
mp-1042216,Ca(BiO2)2,2.1851000000000003,0
mp-978882,SnBi3,0.0,0
mp-1008924,DySb,0.0,0
mp-20400,Ce(GePt)2,0.0,0
mp-2080,SrBe13,0.0,0
mp-763243,Co3(OF2)2,0.16199999999999992,0
mp-1018769,Li3NdSb2,0.0,0
mp-31166,DyTlS2,1.5297,0
mp-761401,LiCrPO4,1.2332999999999998,0
mp-1044440,Pr(SbO3)2,0.0,0
mp-2960,HfSnRh,0.0,0
mp-774535,TiNb3(PO4)6,0.0,0
mp-984660,Dy2InHg,0.0,0
mp-505551,InPH2O5,3.3186999999999998,0
mp-1664,V3Pd,0.0,0
mp-30083,TlBi,0.0,0
mp-555861,Na2Th(PO4)2,4.9443,0
mp-775157,Li6MnV3(PO4)6,0.0,0
mp-676527,Na4PH5Se3O16,3.2615000000000003,0
mp-980659,Tl3BiCl6,2.8618,0
mp-30760,Li3Pb,0.0,0
mp-1046612,Mg4Fe5(TeO6)3,0.5022000000000002,0
mp-29001,NaLuCl4,5.1662,0
mp-861562,CrCo3O8,0.47109999999999985,0
mp-758240,LiTi(PO3)4,0.2269000000000001,0
mp-30729,Ho10In20Ni9,0.0,0
mp-653554,Sb2Te2O9,1.1992000000000003,0
mp-669326,CdI2,2.3663000000000003,0
mp-21392,Tb3InC,0.0,0
mp-28534,CaInBr3,3.136,0
mp-17401,Rb3Sn4Au,0.5795000000000003,0
mp-1029113,Te2MoW3(SeS2)2,0.0,0
mp-761143,KLiSb(PO4)2,0.27170000000000005,0
mp-28661,Ba2Cu3P4,0.0,0
mp-555322,Eu2SiCl2O3,0.6426999999999996,0
mp-13116,NiN,0.0,0
mp-17161,K6CdO4,1.5900999999999998,0
mp-755998,Zr3N2O3,2.6600999999999995,0
mp-772046,NbCu3(PO4)4,0.0,0
mp-984724,Ba2TlZn,0.0,0
mp-976142,PrDyTl2,0.0,0
mp-768971,Li(BiO2)3,0.0,0
mp-1046590,MgTi4O6,0.0,0
mp-600186,Cs2MnBr4,2.5604,0
mp-703398,CuH20Se2(NO7)2,0.2929,0
mp-556331,Sr4Pt4PbO11,0.5728999999999997,0
mp-10393,SmGaSb2,0.0,0
mp-1048031,Sr2YTi2GaO7,0.0,0
mp-9972,YSi,0.0,0
mp-556756,KSb2PO8,2.2122,0
mp-1002182,TcN,0.0,0
mp-754604,BaBePO4F,6.0427,0
mp-27220,Tl5SbO5,1.4702000000000002,0
mp-559454,Cs2KFeF6,4.095599999999999,0
mp-1046792,Bi2O3,0.6115999999999997,0
mp-1047695,Mg(AgO2)2,0.49270000000000014,0
mp-1043900,CaLa(FeO3)2,0.0,0
mp-773003,Er2P4O13,5.3688,0
mp-570254,ThBC,0.0,0
mp-755231,LiTeO3,2.1414999999999997,0
mp-569427,K4Sn(TeSe)2,1.5606,0
mp-755252,DyHO2,4.159000000000001,0
mp-567568,SrCa2WN4,2.6190999999999995,0
mp-631408,KSi2Hg,0.0,0
mp-767620,LiVSiO4,1.3802000000000003,0
mp-703306,Li2H2BrN,0.0,0
mp-505321,CsNb(CuTe2)2,1.0253,0
mp-573390,Np2Si4Mo3,0.0,0
mp-21205,Tm2InPd2,0.0,0
mp-864766,NaMgSO4F,5.611800000000001,0
mp-20911,LaIn5Ir,0.0,0
mp-4701,CuSnF6,0.1778,0
mp-14506,Al7Te10,1.3602000000000003,0
mp-1043180,MgV4(CuO4)3,0.0,0
mp-21248,NbSiIr,0.0,0
mp-16115,Pr2CuO4,0.0,0
mp-1019377,Al(PO3)3,5.8176,0
mp-24215,ScH3Br3N,3.1435000000000004,0
mp-973887,LaPrHg2,0.0,0
mp-972521,SmGe,0.0,0
mp-17059,K3Nb3Si2O13,2.2255000000000003,0
mp-15549,K2LiAlF6,7.2177999999999995,0
mp-30934,As(S8I)3,2.0753,0
mp-756630,DyAlO3,5.723000000000001,0
mp-977997,ZnMo3,0.0,0
mp-697664,LiCr4(PO4)3,2.0696999999999997,0
mp-464,HoSe,0.0,0
mp-14556,SmCd(BO2)5,4.4709,0
mp-28714,Dy(AlCl4)3,4.2606,0
mp-972945,HoErAg2,0.0,0
mp-621926,Na2TiSiO5,3.1096000000000004,0
mp-1043448,MgNi3(P2O7)2,3.8912999999999998,0
mp-567195,Ce2Ga12Ni,0.0,0
mp-559162,SiB11H10C4F11,3.4362,0
mp-722913,Hf3Zn3N,0.0,0
mp-770871,Li6Cr2O7,1.5266,0
mp-753883,La4Bi2O9,2.5475000000000003,0
mp-1679,La2Ni7,0.0,0
mp-266,Zr2Pd,0.0,0
mp-866134,VFe3,0.0,0
mp-644143,LaSb2Au,0.0,0
mp-536,ThZn4,0.0,0
mp-684801,CaLaMgTaO6,4.1303,0
mp-1008806,ReC2,0.0,0
mp-673844,Cr(FeSe2)2,0.0,0
mp-982880,Pm3Y,0.0,0
mp-8412,LiCeO2,0.0,0
mp-23038,CsVBr3,0.6528,0
mp-23366,Rb2CoBr4,0.641,0
mp-582175,La4Si4I3,0.0,0
mp-541373,KTa3CuO9,0.0,0
mp-672394,YbIn4Ni,0.0,0
mp-864661,ZnCuPd2,0.0,0
mp-569869,Sr(AlCl4)2,5.5134,0
mp-17639,Y2Zn17,0.0,0
mp-546898,Sr2Cu(BrO)2,0.0,0
mp-1042549,Ca2Sb3O8,0.0,0
mp-553082,PrBi2ClO4,1.1244,0
mp-698212,Ce3Zn22,0.0,0
mp-12544,Ho3Pd2,0.0,0
mp-1042824,CaFeAs2O7,1.9293999999999998,0
mp-754408,Ba2SrI6,3.0347,0
mp-644278,Y2H2C,0.0,0
mp-14824,Sr2HoCu3(PbO4)2,0.0,0
mp-1048276,YSb3Se2ClO8,0.0,0
mp-542635,SeN,1.8778000000000001,0
mp-1028651,Te4MoW3(SeS)2,0.0,0
mp-40134,ZnSiH12(OF)6,5.0995,0
mp-559940,AlS2NCl6,1.6801,0
mp-5594,Sc2Si2O7,4.2797,0
mp-756769,Na2TlPCO7,1.1597000000000002,0
mp-979963,Yb3Ti,0.0,0
mp-2572,SrMg2,0.0,0
mp-974583,NdSmIr2,0.0,0
mp-625959,Ta2H4O7,3.8863,0
mp-780294,Li3Mn2Fe(BO3)3,2.6411000000000002,0
mp-757116,Rb3ErO3,2.0414000000000003,0
mp-778593,Li4V2Fe3Co3O16,0.6233999999999997,0
mp-556927,RbFeF4,2.8280000000000003,0
mp-504207,LiSb(PO3)4,4.1221,0
mp-553984,AsP3H18C6(SO)6,3.4175,0
mp-571352,TmB6,0.0,0
mp-30497,TbCd2,0.0,0
mp-25433,TiO2,2.4516,0
mp-636821,U6Ni,0.0,0
mp-1044156,Ca2Nb2WO8,0.0,0
mp-13583,Sc2Si2Ru,0.0,0
mp-549706,MgO,3.2870999999999997,0
mp-865182,Gd2SCl4,1.7004000000000001,0
mp-669334,CdI2,2.3407,0
mp-569894,La4B4Cl5,0.0,0
mp-10919,Rb2PtC2,1.1361999999999999,0
mp-17297,Na2GeF6,5.7858,0
mp-29998,La3SbI3,0.0,0
mp-763324,Li2Mn2P4H3O16,0.27500000000000013,0
mp-755399,Li2CuSnO4,0.23280000000000012,0
mp-20716,PbSeO3,2.8838,0
mp-7425,TbPt,0.0,0
mp-22382,TbInAg2,0.0,0
mp-669325,TeWCl9,0.0,0
mp-567428,Tb3CuGeSe7,1.1262000000000003,0
mp-505791,ReH8(Br3N)2,0.8133,0
mp-1007691,HfPt,0.0,0
mp-697701,LaP3H8O7,4.8244,0
mp-20463,CaPbF6,3.4558999999999997,0
mp-13511,Tm4In(NiGe2)2,0.0,0
mp-780894,Na6Ni2P(CO4)4,0.0,0
mp-5587,Ba2ZnS3,2.0205,0
mp-19104,LiYb(WO4)2,0.8205,0
mp-1033557,RbMg6BO8,1.6865999999999999,0
mp-557537,Zn4P6N12O,2.9652,0
mp-676867,Ca2HoF7,3.2502000000000004,0
mp-4583,NbCo2Sn,0.0,0
mp-6071,Sr3LiIrO6,0.0,0
mp-754790,Ti3N2O3,1.5473,0
mp-504997,NdCu(WO4)2,1.5763000000000003,0
mp-768479,YScO3,3.2036000000000002,0
mp-20365,NpGe3,0.0,0
mp-697794,Mn2P3O10,0.0,0
mp-1047300,SbO2,0.0,0
mp-6920,KNO3,2.9587000000000003,0
mp-557142,Li2S,3.1532000000000004,0
mp-631396,KFeTc2,0.0,0
mp-15509,Yb4Si2S3O7,0.0,0
mp-3581,Ta4MnS8,0.0,0
mp-558490,Tb3Se2ClO8,4.0674,0
mp-10014,TaS2,0.0,0
mp-7118,Rb4SnO4,2.1562,0
mp-3368,LiNb3O8,2.9705000000000004,0
mp-22115,TbSbRh,0.0,0
mp-559203,CdSeO3,3.4047,0
mp-649632,KCo(CO)4,3.7260999999999997,0
mp-753171,Li2CuF4,0.5768,0
mp-973666,KV5Se8,0.0,0
mp-560097,CaTeO3,3.2538,0
mp-23905,KMgH9(CO5)2,5.0253000000000005,0
mp-5787,SrCuO2,0.0,0
mp-763211,V3O5F,0.22670000000000012,0
mp-1019898,LaPO4,4.6606000000000005,0
mp-780172,Tm2TeO6,3.1117000000000004,0
mp-31896,Fe3(PO4)4,0.0528,0
mp-690769,CuP2H12N2(O4F)2,0.05820000000000003,0
mp-8458,BaAsPt,0.0,0
mp-14323,Ba3Ho4O9,3.2561,0
mp-752507,LiCuPO4,0.0,0
mp-759924,Bi14SO24,2.6584000000000003,0
mp-3992,PrSF,1.2541000000000002,0
mp-10692,CoGe,0.0,0
mp-28161,Na3P6N11,3.8178000000000005,0
mp-698449,PH12C2N6O3F,4.9350000000000005,0
mp-757546,K3Ta8O21,0.0,0
mp-977571,MgRh2Pb,0.0,0
mp-1043854,LaMgFeCuO6,0.0732999999999997,0
mp-648179,Cs3Mn3V4O16,0.8896999999999999,0
mp-505346,Eu3(BO3)2,0.3684000000000003,0
mp-30720,Mn2Hg5,0.0,0
mp-1031270,KRbMg6O7,0.0,0
mp-753905,Tm2Zr2O7,2.2464000000000004,0
mp-540946,LiReO4,4.0225,0
mp-27398,TlBr2,1.7922000000000002,0
mp-1046402,SrMnZn(PO4)2,3.2141,0
mp-22286,Ag5(PbO3)2,0.0,0
mp-560341,EuSi2(NO)2,0.3055999999999992,0
mp-569623,Nb(SeBr)2,0.9702000000000002,0
mp-754283,HoHO2,4.522500000000001,0
mp-1045356,Y(MnS2)2,0.0,0
mp-17588,AgRuF7,0.0,0
mp-769713,Na4B4Sb2SO16,1.8820000000000001,0
mp-604909,Ca4Si2H2CO11,4.6256,0
mp-998604,RbPbCl3,3.263,0
mp-504769,N2O5,0.6626,0
mp-573635,Ba2In2Se5,1.3944999999999999,0
mp-1030334,Te4Mo3WSe4,0.0,0
mp-22175,EuC2(SN)2,0.0,0
mp-18965,BaCoO3,0.0,0
mp-7535,Li5AlO4,4.795,0
mp-1045900,YCu3(WO3)4,0.0,0
mp-1102,LuN,0.24209999999999976,0
mp-19131,LiMnBO3,2.5635999999999997,0
mp-5710,Ag3Te2Au,0.1767000000000003,0
mp-569984,Cs3Au2Br11,1.1427,0
mp-974729,Nd(Al2Cu)4,0.0,0
mp-556963,SiO2,5.3934,0
mp-768613,Zr(MnSn)6,0.0,0
mp-21374,Cd(InTe2)2,0.8481000000000005,0
mp-984454,KTlO3,0.0,0
mp-3797,K3AsS4,2.0132,0
mp-974474,ReBr,0.0,0
mp-21871,CeCrS3,0.0,0
mp-1723,UAl3,0.0,0
mp-770554,Mn3Co3(SnO8)2,0.0,0
mp-779890,Li2MnFe(BO3)2,2.7177000000000007,0
mp-979081,TmMg5,0.0,0
mp-560121,H5CNO3,5.1511,0
mp-23644,Hg3AsClO4,2.0411,0
mp-676400,TlNO2,1.7320999999999998,0
mp-510281,FeCuO2,0.8043999999999998,0
mp-556932,TlPO3,3.6020000000000003,0
mp-570935,LiI,4.3818,0
mp-20647,Nd2ScSi2,0.0,0
mp-755723,Er2Pb2O7,0.9168999999999996,0
mp-752742,LiCu2F4,0.0,0
mp-17833,Ba3GeO,0.37090000000000023,0
mp-22264,CsSr2Nb3O10,1.4423,0
mp-22882,YbBr2,4.4989,0
mp-1018088,C,0.0,0
mp-773066,KTa2PO8,3.0048000000000004,0
mp-999205,ScC,0.0,0
mp-9967,NdSi,0.0,0
mp-764645,Li3MnF7,1.4076999999999997,0
mp-20320,InTe,0.0,0
mp-648394,CrCo3C16NO14,1.608,0
mp-755108,Tl2Pb2O7,0.0,0
mp-1009490,O2,1.5865999999999998,0
mp-10990,Al4CN3O,0.15329999999999977,0
mp-765316,Li3Ni2(CO3)4,0.0,0
mp-5589,Sr(MnP)2,0.0,0
mp-22234,Eu2C(NO)2,0.0,0
mp-618375,Ag4Te(NO3)2,0.0,0
mp-973866,LuOs3,0.0,0
mp-16591,Tm4Si2S3O7,2.6506,0
mp-690848,CdH20C2S2(NO2)6,0.2538,0
mp-19373,LiVO3,3.0342000000000002,0
mp-769329,RbLi2B3Sb2O9,2.6207999999999996,0
mp-975906,LiAl3,0.0,0
mp-796,Nb3Al,0.0,0
mp-555021,TePbO3,2.6712,0
mp-557941,K4AsH5S3O16,3.9373,0
mp-626973,Ba(HO)2,4.5412,0
mp-561318,Ba2AlCu2F11,0.5741999999999999,0
mp-555800,La2Si2O7,4.3649000000000004,0
mp-600052,SiO2,5.4991,0
mp-1025573,Te2W,0.6644000000000001,0
mp-560336,SiO2,5.5748,0
mp-1007690,HgPt3,0.0,0
mp-971948,Zn3Co,0.0,0
mp-10180,Li2SbPd,0.0,0
mp-555356,Ba13Dy8Zn4Pt4O37,2.2975000000000003,0
mp-560114,Er3O2F5,5.6188,0
mp-697078,Cs2SiP4(HO7)2,5.1811,0
mp-31415,La3TaO7,3.4556000000000004,0
mp-559895,ErCuTe2BrO6,0.3734000000000002,0
mp-31874,Fe(PO3)4,0.34409999999999996,0
mp-21244,Cr3RhN,0.0,0
mp-865717,Ti2ReIr,0.0,0
mp-29700,CS3N,2.8222,0
mp-30440,Be22Mo,0.0,0
mp-976775,NaMgO3,0.0,0
mp-980947,SrCaHg2,0.0,0
mp-1543,Ge2Pt,0.0,0
mp-774802,NbCu(PO4)2,0.3009999999999997,0
mp-27482,Ag4P2S7,1.6476000000000002,0
mp-30002,Sc(IO3)3,3.8452,0
mp-12640,Ba2DyNbO6,2.8514,0
mp-5503,ErTaO4,4.0531,0
mp-37509,NbFeO4,1.8479999999999994,0
mp-23163,CsBi2,0.0,0
mp-557825,H4CN2O,4.7048,0
mp-978285,Mg3Mn,0.0,0
mp-768810,Sr4Br6O,3.4836,0
mp-8932,Cs2SiP2,1.27,0
mp-643356,SrH2Br2O,4.175800000000001,0
mp-697,SnO2,0.5796999999999999,0
mp-625172,H3ClO5,4.7936000000000005,0
mp-3933,Mg2PN3,3.5371000000000006,0
mp-28512,Ba(ClO3)2,5.268700000000001,0
mp-540313,LiFe(PO3)3,4.189500000000001,0
mp-775911,La2Nb2N2O5,1.8865999999999996,0
mp-18217,K3AlSe3,2.3566,0
mp-710509,VH21C7N4Cl7,1.6009,0
mp-843,Th2Fe17,0.0,0
mp-556237,KLiYF5,7.1638,0
mp-1909,LaMg2,0.0,0
mp-758317,YTa3O9,2.1427,0
mp-775286,Li2Fe3NiO8,0.0,0
mp-541040,Y2Be2GeO7,4.540100000000001,0
mp-560019,K2Ge3(BO5)2,3.8545,0
mp-699888,Na2TiFe(PO4)3,2.4985,0
mp-675756,Ba3P4O13,1.697,0
mp-1579,ErC2,0.0,0
mp-707177,HC5N3(OF4)2,4.8499,0
mp-528,U2Zn17,0.0,0
mp-6000,La2Ti3(AgO5)2,1.9412000000000003,0
mp-756034,NaSmO2,3.9782,0
mp-1018746,LaGe2Ir3,0.0,0
mp-774745,Li3CuS3,0.6119999999999999,0
mp-949028,Sn,0.7135000000000002,0
mp-862956,PmSnAu2,0.0,0
mp-34467,Zn(GaS2)2,1.8921999999999999,0
mp-765238,Li4V3OF11,2.1408,0
mp-1041318,Be3Si3(SnO6)2,1.4817,0
mp-765538,Li3Co2NiO6,0.0,0
mp-643026,SrH4(ClO)2,4.9993,0
mp-974862,Rb3Na,0.0,0
mp-1805,ErRh5,0.0,0
mp-769658,Li2TiFeO4,0.8561000000000001,0
mp-862615,Er2NiRu,0.0,0
mp-693892,Sr2CrClO4,1.1299,0
mp-605172,Cu3As2H16C16Br3(NO)2,1.6932,0
mp-631382,YMgCu,0.0,0
mp-20554,InAgSe2,0.01089999999999991,0
mp-705480,MnF4,0.10239999999999982,0
mp-3857,Ba3(PO4)2,5.1417,0
mp-672228,TiAs2,0.0,0
mp-770910,Li3Mn(BO3)2,1.3618999999999999,0
mp-849783,TeH14C3S3(N3F2)2,2.2372,0
mp-18267,La2Cu(SeO3)4,0.4289999999999998,0
mp-29345,LiGaI3,2.2473,0
mp-11605,KTb2CuS4,0.9948999999999999,0
mp-1019789,K3B(SO4)3,5.2623,0
mp-1029946,Te2MoWS2,0.0,0
mp-862868,PbBr2,2.5709,0
mp-758974,FeB18H32(C4S)2,2.0282999999999998,0
mp-26630,TiP2O7,2.7319,0
mp-1048855,CaLaVCrO6,1.2525000000000004,0
mp-676563,Ta4Cu2O11,1.2731,0
mp-4439,Pr(SiNi)2,0.0,0
mp-1047277,Mg(CuO2)2,0.32920000000000016,0
mp-8850,Dy2S3,0.7389000000000001,0
mp-559745,SiAg8(SO2)2,0.0,0
mp-555921,PH9AuC3ClO3,3.3723,0
mp-753385,LiAg2F4,0.0,0
mp-775774,AgBiO3,0.0,0
mp-707866,SrZnH6O5,3.6372,0
mp-23405,Cs2TeBr6,2.1121,0
mp-850083,Fe4S5,0.002700000000000008,0
mp-9607,Li2UO4,2.1005,0
mp-8702,LiGaGeO4,2.7169,0
mp-635327,NaY2In,0.0,0
mp-29711,Tl2Te3,0.7326999999999995,0
mp-16566,Cu2SnHgSe4,0.0,0
mp-1009014,LiCuO,0.0,0
mp-705430,MnO2,0.0,0
mp-1029699,Cs2CN2,2.2801,0
mp-2843,SnF2,3.275,0
mp-997055,CuBiO2,0.6113999999999997,0
mp-7438,KZnSb,0.4468000000000001,0
mp-559710,NaInAs2O7,2.3176,0
mp-775073,Li4Cr3Fe3(SnO8)2,0.46819999999999995,0
mp-760786,Li2Cu3F11,0.0,0
mp-542180,Th(TeI)2,1.0259,0
mp-35205,LiErSe2,1.6045000000000003,0
mp-652711,Bi2Ru3(CO)9,2.1010999999999997,0
mp-9179,Ba3Zr2S7,0.5049999999999999,0
mp-1041312,BaMn4O8,0.0,0
mp-981563,YbPm3,0.0,0
mp-558102,KLiSi2O5,4.7068,0
mp-636334,SnRh2,0.0,0
mp-558256,Li3Ti4O8,0.0,0
mp-865248,TmNbRu2,0.0,0
mp-20568,LaAgGe,0.0,0
mp-1043069,ZnCr4(CuO4)3,0.0,0
mp-755393,SrLaI5,2.0460999999999996,0
mp-774357,Na6CoO4,1.0506999999999997,0