mp_id,formula,band_gap,fidelity
mp-775339,Li2V(Si2O5)3,1.7923,0
mp-566717,Fe2BO4,1.1187999999999998,0
mp-39712,NaCaTaTiO6,2.4426,0
mp-1041309,BaZnAgF7,0.3356999999999999,0
mp-5628,K(RuO2)4,0.0,0
mp-582278,Tm4InRh,0.0,0
mp-1041394,La2WO6,3.5578999999999996,0
mp-686705,CaNb2Ga2(CuO4)3,0.2576999999999998,0
mp-6309,La3Cu4(P2O)2,0.0,0
mp-549127,HoBi2ClO4,1.3709999999999996,0
mp-614964,Ba2PrCu3O8,0.0,0
mp-850364,Fe4O3F5,1.3047,0
mp-999206,ScAl,0.0,0
mp-616492,DyGe2Pt,0.0,0
mp-776104,K2O,0.8928999999999999,0
mp-4253,V(CrC)2,0.0,0
mp-769049,BaLaCl5,3.785,0
mp-1046445,SrMgFe(PO4)2,3.7512,0
mp-554650,LaH6(ClO3)3,2.5974000000000004,0
mp-7879,Sr(AgGe)2,0.0,0
mp-21041,Tb(FeP3)4,0.0,0
mp-605835,Nd4MgRu,0.0,0
mp-975821,K3Ir,0.0,0
mp-770383,Li2Cr2(SO4)3,2.2954,0
mp-1008867,NaCuO,0.0,0
mp-11582,LiGaSe2,2.0656,0
mp-778375,La2Nb2N2O5,1.6052999999999997,0
mp-28537,As2PbO4,2.8420999999999994,0
mp-754417,H2,0.0,0
mp-625230,Zn(HO)2,1.9871999999999999,0
mp-973636,Lu2ZnGa,0.0,0
mp-755376,Er2TeO6,3.0329,0
mp-9682,Na3AlSe3,2.3816,0
mp-707170,CuH6SO7,0.7765000000000001,0
mp-1041611,Mo(WO4)2,1.9572,0
mp-18348,KGaP2O7,4.3848,0
mp-866094,HfZnCu2,0.0,0
mp-20389,Na2CdPb,0.0,0
mp-746071,KFePO4,3.4089,0
mp-2347,NiAs,0.0,0
mp-22481,KIn4,0.0,0
mp-770349,LiVSiCO7,1.7103,0
mp-7079,CaZrSi2O7,4.5532,0
mp-5512,Sr4Al14O25,3.9458999999999995,0
mp-780877,Li2Mn3(BO3)3,0.0,0
mp-776715,Li3Fe2F7,3.3770000000000002,0
mp-2807,ScP,0.0,0
mp-28601,NbBr5,1.5583,0
mp-27514,NaFeCl4,1.2305,0
mp-20670,Yb(MnGe)2,0.0,0
mp-1028730,Te4MoW3Se4,0.23220000000000063,0
mp-29559,La3Si3Cl2,0.0,0
mp-568844,BiSe,0.0,0
mp-556283,Na2TiSi4O11,2.7322999999999995,0
mp-760461,LuBO3,4.2791,0
mp-19909,Dy(CrSi)2,0.0,0
mp-997002,KAuO2,1.4088,0
mp-766596,Ti(SiO3)2,3.2748,0
mp-570604,TaN,0.0,0
mp-29206,BaMnSb2,0.0,0
mp-567650,Mn2Fe(CN)6,2.0169,0
mp-534793,KCa5Mg5Al(SiO3)12,4.8377,0
mp-559951,SrTa2Bi2O9,2.3040000000000003,0
mp-2622,Pa3As4,0.0,0
mp-10861,Hg,0.0,0
mp-780487,LiMnPH2O5,3.3626,0
mp-19764,Pr3In,0.0,0
mp-850995,Na4V2C4SO16,1.5699,0
mp-9056,ZrPdF6,0.9909000000000001,0
mp-555166,BaAg2SnS4,0.36030000000000006,0
mp-7555,LiMgSnPd,0.0,0
mp-1019359,ThSbSe,0.0,0
mp-865250,TmTc2W,0.0,0
mp-643047,Ba3(H6Ir)2,3.1548000000000003,0
mp-21468,PuIn,0.0,0
mp-758660,MgP2(H8O5)2,5.5068,0
mp-558972,KBC4NF9,6.5143,0
mp-554175,SiO2,5.7494,0
mp-631703,BaRe2Sn,0.0,0
mp-979292,SmY3,0.0,0
mp-976802,KF2,1.3494000000000002,0
mp-972961,Sc2NiRh,0.0,0
mp-555408,SbS7IF6,1.9994,0
mp-697914,ZrP2(H3O5)2,4.4371,0
mp-1099,NiGe,0.0,0
mp-10754,Fe(RhS2)2,0.0,0
mp-781613,Li4Fe3Co5O16,0.0,0
mp-861624,LiLaHg2,0.0,0
mp-19862,EuSi2,0.0,0
mp-648,Na2S,2.4399,0
mp-1046929,CaCuO2,0.1560999999999999,0
mp-23547,Ba7(ClF6)2,6.0482,0
mp-22320,GaRu,0.0,0
mp-774385,Fe5(OF4)2,1.3142,0
mp-777964,Na2BiO3,0.0,0
mp-19388,BaNi2(AsO4)2,2.8416,0
mp-1029282,TeMoWSeS2,0.1634000000000002,0
mp-571347,Pr3CuGeSe7,1.2046999999999999,0
mp-8262,K2P3,0.7095000000000002,0
mp-697708,Sm2Si5Ru3,0.0,0
mp-744274,Fe(Si2O3)2,0.0,0
mp-504775,La6P17Pd6,0.0,0
mp-696650,KH2Au(Cl2O)2,0.5065,0
mp-9392,Sr4Al6TeO12,2.8466000000000005,0
mp-1042174,CaTe2O7,1.9045,0
mp-22574,HgP14Pb,1.2948000000000004,0
mp-10767,CsK2Yb(PO4)2,0.0,0
mp-504742,Pr8Ga3Co,0.0,0
mp-28683,Ta(ICl)2,1.1785,0
mp-640470,Pu2InPt2,0.0,0
mp-20276,U2F9,0.0,0
mp-13018,UCo4Sn,0.0,0
mp-23083,KAs4BrO6,2.7254,0
mp-30615,Er6Zn23,0.0,0
mp-579628,Gd2Tl,0.0,0
mp-16724,Zr5Al3,0.0,0
mp-567446,La23Cd4Pt7,0.0,0
mp-7374,Ba(CuO)2,1.3793000000000002,0
mp-755449,Cd(AgO2)2,0.427,0
mp-698648,K3(MoO3)10,0.4042999999999999,0
mp-866069,MgScRh2,0.0,0
mp-865432,Y2NiIr,0.0,0
mp-554002,Al(HO)3,4.9959999999999996,0
mp-466,Nb2F5,0.14979999999999993,0
mp-541014,Cs3Sb2I9,1.5431000000000001,0
mp-565757,Gd2WO6,3.1124,0
mp-554878,PrSbO4,1.3777999999999997,0
mp-867266,CaMgTl2,0.0,0
mp-1008650,CeSe,0.0,0
mp-569782,Sr2LiCBr3N2,3.9725,0
mp-770572,Li2FeH12(SO7)2,3.9178,0
mp-554066,Ba3Lu2Zn5O11,2.2892,0
mp-631312,InP2Pb,0.0,0
mp-695172,CsMg12Al25Si29O108,4.346,0
mp-982725,Nb2RuW,0.0,0
mp-556891,KFeF3,2.907,0
mp-571409,Cs2Li3Br5,4.3566,0
mp-24279,AlH36C12S6(IO2)3,3.3691,0
mp-604119,KP(HO2)2,4.919,0
mp-973655,LuSiO3,0.0,0
mp-1041117,ZnSb4O9,0.0,0
mp-1019530,Ba2P2O7,5.1483,0
mp-7818,Pd4Se,0.0,0
mp-985806,Al2Cu,0.0,0
mp-683953,SiO2,1.4904000000000002,0
mp-636105,MnGa,0.0,0
mp-27194,SnI2,1.7061000000000002,0
mp-1025743,Te4Mo2WS2,0.008099999999999774,0
mp-778009,LiBi6B3O14,2.4456999999999995,0
mp-1018639,TiSnO3,1.0478999999999994,0
mp-31243,BaAs2,0.41490000000000027,0
mp-18764,Ba2SrWO6,3.2478000000000002,0
mp-760381,CuS,0.0,0
mp-12910,GeS,0.5581,0
mp-23799,NaZnP2HO7,4.510800000000001,0
mp-28467,Cs2Cu5Se4,0.0,0
mp-568987,Na2BeH4,4.5899,0
mp-754480,GdYO2,0.0,0
mp-762710,Li3VFe3O8,1.384,0
mp-693503,Zn2GaP3H8(NO6)2,2.3536,0
mp-765102,LiTi(PO3)4,0.18540000000000045,0
mp-6305,K3TiO4F3,2.536,0
mp-24328,RbHCO2,4.4247,0
mp-753202,Li5CuF8,0.6895999999999998,0
mp-1045059,Y(FeO2)3,1.1700000000000004,0
mp-951,CeRh2,0.0,0
mp-978254,La3Ag,0.0,0
mp-556232,Na2CaMg(PO4)2,5.0991,0
mp-556623,K2TiOF4,3.0221999999999998,0
mp-600071,SiO2,5.4719,0
mp-4731,K2UF6,0.06559999999999988,0
mp-28920,Tl5Se2Cl,0.5641000000000003,0
mp-30444,Be22W,0.0,0
mp-757996,LiTi(PO3)4,0.02300000000000013,0
mp-30129,Li4TaN3,2.6752,0
mp-1041451,CaCr4O9,0.6465999999999998,0
mp-5610,Ca(AsRu)2,0.0,0
mp-772180,LuScO3,3.0863,0
mp-1048047,MgFe4O9,0.0,0
mp-997007,AgPtO2,0.052200000000000024,0
mp-559336,NaNb3(TeO4)4,2.0237000000000003,0
mp-8,Re,0.0,0
mp-1043740,ZnCo3(P2O7)2,2.2743,0
mp-1041414,CaW4O9,0.9723000000000006,0
mp-721707,H6C3N4O3,4.3669,0
mp-569125,Mg3In,0.0,0
mp-641778,Dy7In(CoGe3)4,0.0,0
mp-1001117,Mn3N2,0.0,0
mp-1123,HgS,0.0,0
mp-569051,MgH2,2.3531,0
mp-773135,Li3Cu3(PO4)2,0.6978,0
mp-769531,Na3Mn2P2(CO7)2,0.7589,0
mp-762657,LiFe(PO3)3,3.7531,0
mp-29479,C2(OF2)3,4.3593,0
mp-686526,NaCaAlSi2O7,3.9498,0
mp-778808,Li6La3Nb2O12,0.0,0
mp-4593,Mn3AlC,0.0,0
mp-556653,Cd2BiAsO6,2.0527999999999995,0
mp-541946,K2Th(PSe3)3,1.458,0
mp-865439,Th3O2,0.0,0
mp-22720,RbSr2Nb3O10,1.4646,0
mp-775484,Ba6Li2Ti16O39,2.3147,0
mp-989642,Cs2NaAlH6,2.1378000000000004,0
mp-651839,Hg8Br3O4,0.2024,0
mp-864641,HoCl2,0.0,0
mp-759728,Sb7(O2F3)3,2.7586999999999997,0
mp-28021,Sr5(Br4Cl)2,4.443899999999999,0
mp-765692,LiCo2OF3,2.2860000000000005,0
mp-504687,USnTe,0.0,0
mp-21577,Na3InP2,0.6425999999999998,0
mp-653922,Co2SnC8(ClO4)2,2.5075000000000003,0
mp-1009134,MnFe,0.0,0
mp-30785,Mn3Pt,0.0,0
mp-999338,NdAu,0.0,0
mp-16627,TmAl7Au3,0.0,0
mp-862723,ScTc2Mo,0.0,0
mp-571668,CdI2,2.3944,0
mp-695030,La10Mg(Ga3O10)3,0.0,0
mp-556244,Xe2NO2F13,2.8973000000000004,0
mp-707478,H6Os5Pt(CO)16,1.8719000000000001,0
mp-1043569,CaSb2(PO5)2,0.0,0
mp-769355,AgH3O2,1.0711,0
mp-644442,SnH2N2O3F2,0.0,0
mp-760819,LiAg2F6,0.12200000000000011,0
mp-9078,BaPIr,0.0,0
mp-22535,HfPbO3,2.4163000000000006,0
mp-733932,InH5(NF)2,3.5032,0
mp-23269,WCl3,0.0,0
mp-740750,Na4P4(H2O5)3,4.8057,0
mp-686232,Na7Al11Si13(AgO12)4,0.5483,0
mp-556842,CuH12(N5O4)2,0.7679,0
mp-4807,AgAsF7,0.0,0
mp-1463,LaIr2,0.0,0
mp-976292,NaCu,0.0,0
mp-20542,Pr(MnGe)2,0.0,0
mp-676950,Be(GaO2)2,2.4852,0
mp-735518,FeH2Cl5O3,0.0,0
mp-637209,AsN9,3.1608,0
mp-989594,Cs2NaGaH6,1.0882,0
mp-554699,GePbO3,2.7131,0
mp-775817,Li5SbS4,1.5475,0
mp-13160,YZnGe,0.0,0
mp-41732,BaLa2TiCr2O9,1.0070999999999994,0
mp-20424,MgCo3C,0.0,0
mp-616166,Ba2Ho(CuO2)3,0.0,0
mp-975043,Rb3Ca,0.0,0
mp-1041934,Zn(MoO2)2,0.8945999999999996,0
mp-21029,Li2InPd,0.0,0
mp-10712,ScRh3C,0.0,0
mp-3428,SmBPd3,0.0,0
mp-707491,Re6H12Pb3C2S2(N2O13)2,2.3448,0
mp-1026958,TeMo2Se2S,0.0,0
mp-546633,KClO4,5.128,0
mp-18026,SrZn11,0.0,0
mp-1046558,Ba2Ca2Tl2W3O10,0.0,0
mp-978984,TmMgPt2,0.0,0
mp-8468,Sr(SbPd)2,0.0,0
mp-780218,Na5LaO4,2.069,0
mp-10928,BaC2(SN)2,3.9015,0
mp-704240,CoPO4,0.4474,0
mp-562764,Ba7B4S13,2.5225,0
mp-571538,CdI2,2.3499,0
mp-1018017,Sc2MnSn,0.0,0
mp-16455,BaNd2ZnS5,1.1406999999999994,0
mp-1045493,Y(FeO2)2,1.8529000000000004,0
mp-8769,Rb2CoSe2,0.0,0
mp-27451,Tl3PbBr5,3.1285999999999996,0
mp-776442,Ba2YI7,2.8272999999999997,0
mp-634930,YbH3,0.0,0
mp-22782,TiNiSn,0.0,0
mp-569202,Ca10Mg2Sb9,0.0,0
mp-624200,Re3Se4Br,1.4421000000000004,0
mp-569691,YbCu9Sn4,0.0,0
mp-1041171,Ca(FeO2)2,1.3407,0
mp-971834,Y(Mg4Al3)4,0.0,0
mp-11691,Nd2HgO4,2.2077,0
mp-2619,FeSb,0.0,0
mp-773817,Sn2N2O,0.006999999999999673,0
mp-752395,Ba2Na2O3,1.9318,0
mp-5073,RbNO3,3.2401,0
mp-1041480,MgSi2SnO6,3.1294000000000004,0
mp-685969,Ag8GeTe6,0.0387000000000004,0
mp-774869,Na5Bi2As(CO4)4,0.4649000000000001,0
mp-558763,Ag2Hg(SeO3)2,1.8132,0
mp-640073,FeCuS2,0.0,0
mp-14694,CaCuP2O7,0.6021000000000001,0
mp-582081,Cs3NdCl6,4.9486,0
mp-1041638,Cr3(AsO4)4,0.681,0
mp-571342,TiGa2,0.0,0
mp-769533,LiMn(PO3)4,1.2959999999999998,0
mp-758103,YH2(CO3)2,3.4584,0
mp-643902,SnH4(NF)2,3.1067,0
mp-756708,CaPrO3,0.0,0
mp-1049205,LaMgCrMoO6,1.4102000000000006,0
mp-644256,LiH2CO3,0.12650000000000006,0
mp-546350,TmBi2BrO4,1.3546,0
mp-707202,ErP2H7O10,2.4933,0
mp-850305,SrCaI4,3.713,0
mp-571193,MnP4,0.5601000000000003,0
mp-15642,SrMgSi,0.03299999999999992,0
mp-32933,Tm2S3,2.0032000000000005,0
mp-763020,Fe4OF7,1.9278,0
mp-770528,Li5MnO4,0.2487999999999999,0
mp-972184,VPtO3,0.0,0
mp-6011,Ba4LiMo2N7,1.7645,0
mp-850864,Ho2TiO5,3.1511999999999993,0
mp-19428,K2RbTbV2O8,3.3998999999999997,0
mp-557151,ZnS,2.0324,0
mp-557266,HgO2,0.2876000000000001,0
mp-40201,Na8Be3Si9(ClO12)2,3.9839,0
mp-1042011,MgCoP2O7,2.4983,0
mp-771733,Li3MgV8O16,0.28110000000000035,0
mp-1016197,MgSiAs2,1.3031999999999995,0
mp-1006057,LaPrIn2,0.0,0
mp-1045606,Sb(PO3)4,1.6088000000000002,0
mp-12783,Sr(CdGa)2,0.0,0
mp-20949,MnSiNi,0.0,0
mp-645301,K2CoP2WO10,2.6609999999999996,0
mp-14380,CsNaSnF6,5.143599999999999,0
mp-29104,Ti3Zn2O8,2.5854,0
mp-319,Sm2Tl,0.0,0
mp-773101,K3Li2Ta6(PO8)3,0.0,0
mp-1019543,BaCaP2O7,5.3187,0
mp-7531,Ca4Al6O13,3.9417999999999997,0
mp-753089,LiCu2F6,0.0,0
mp-671913,MoSe2Cl4O,1.0886,0
mp-27262,Ca9Zn4Bi9,0.0,0
mp-1013900,TiSCl,0.0,0
mp-9357,Th(CrB3)2,0.0,0
mp-32308,Ta2NiO6,2.7613000000000003,0
mp-553923,K2AgSbS4,1.0986999999999998,0
mp-1020592,Sr4Li2Si4N8O,2.5722000000000005,0
mp-28174,Pd(SCl3)2,1.6115,0
mp-553981,RbMnF4,2.0352,0
mp-13272,BaAlGe,0.0,0
mp-11463,LaHg2,0.0,0
mp-7829,MnNbSi,0.0,0
mp-1029542,Na6MoN4,1.3685999999999998,0
mp-756029,Zr2N2O,2.0128999999999997,0
mp-754839,SnBiO4,0.0,0
mp-760680,Li2Fe12P7,0.0,0
mp-1044032,LaVZnFeO6,0.7334999999999994,0
mp-998322,CsInF3,0.0,0
mp-24810,NaBH4,6.2163,0
mp-12608,CuPt7,0.0,0
mp-30821,LiAl2Rh,0.0,0
mp-1853,Sr3P14,1.8254000000000001,0
mp-672222,Ta2As,0.0,0
mp-30931,Na4SiSe4,2.1322,0
mp-649627,Cu3SbS4,0.0,0
mp-765549,Li7CoOF7,2.267,0
mp-1007660,IrN,0.0,0
mp-2105,Hf3Si2,0.0,0
mp-753179,Li2CuPO4,1.9750000000000005,0
mp-760536,CuCO3,0.0,0
mp-29138,KAuSe2,0.8757999999999999,0
mp-864948,MnGaPt2,0.0,0
mp-9262,Cs2PtF6,2.814,0
mp-2025,HfBe5,0.0,0
mp-23283,Sm4Bi3,0.0,0
mp-1209,RbAu5,0.0,0
mp-1018815,NdSbPd,0.0,0
mp-29484,K4HgAs2,0.6976000000000001,0
mp-979234,Sm3Y,0.0,0
mp-558481,ZnGaNO,0.31420000000000003,0
mp-862331,La2CuRu,0.0,0
mp-9831,LaGaO3,0.0,0
mp-758845,Ba5Nb2O10,2.3701,0
mp-630403,Ca2MnGaO5,0.0,0
mp-644841,K2Pd(NO2)4,2.137,0
mp-23097,K2Os(Cl2O)2,1.7286000000000001,0
mp-770706,Li6MnAlO6,0.9731000000000001,0
mp-570363,LiSi,1.3839000000000001,0
mp-676247,NaYbF4,0.0,0
mp-630329,PbSeO3,3.3267999999999995,0
mp-555982,Si2Ge3P6O25,4.0974,0
mp-2873,Ce(CrB3)2,0.0,0
mp-1018662,CeSbPd,0.0,0
mp-865878,Ti2TcNi,0.0,0
mp-619575,ClF3,2.4608,0
mp-13002,K2SiF6,7.1895,0
mp-415,IrN2,0.3178000000000001,0
mp-11610,PrCo4B,0.0,0
mp-15787,KYbS2,0.0,0
mp-555888,C2S(OF)4,6.1791,0
mp-1046049,Ta2TeO8,0.3278000000000001,0
mp-6394,RbTiAsO5,3.056,0
mp-973881,PmDy3,0.0,0
mp-29509,Zn(AsO2)2,3.5391000000000004,0
mp-17123,Si2Os,0.652000000000001,0
mp-7954,Nd2O3,1.5703,0
mp-770492,Li24Mn11CrO36,1.2313,0
mp-771235,CsLa3O5,3.3658999999999994,0
mp-684539,Li3Sb2(PO4)3,3.4734,0
mp-1025637,Te2W3(SeS)2,0.0,0
mp-1045725,Mg2Sn9O13,0.0,0
mp-1028663,WSeS,0.7620999999999998,0
mp-2387,Th2Zn,0.0,0
mp-574438,ThRu2,0.0,0
mp-861249,Zr11VO24,1.7597,0
mp-675925,Ce2PbS4,0.0,0
mp-3340,TaAlCo2,0.0,0
mp-758004,K3Nb7O19,2.0722,0
mp-17799,KCdC3(NO)3,4.1312,0
mp-864753,LiYb2Ga,0.0,0
mp-1019238,Pd2N,0.0,0
mp-754572,BaCa2I6,3.499,0
mp-15382,TmP5O14,5.2284,0
mp-630880,LiNd2Tl(MoO4)4,2.9659000000000004,0
mp-1025728,Te2Mo3Se4,0.0,0
mp-36821,Nd2CdSe4,0.9937000000000005,0
mp-10630,Sb,0.0,0
mp-776135,Fe23O32,0.6341000000000006,0
mp-28212,Nb4O5,0.0,0
mp-1021507,Ba2Y(CuO2)3,0.0,0
mp-542697,Rb2RuO4,0.5314999999999999,0
mp-5881,CoSbS,0.3662000000000001,0
mp-10125,SbIr,0.0,0
mp-758810,LiBi2P3O11,3.4454000000000002,0
mp-6537,CaCu(GeO3)2,0.3338000000000001,0
mp-776046,TiFe3Sb2(PO4)6,1.1029999999999998,0
mp-763204,MnOF,0.0,0
mp-1028488,WSeS,0.7584,0
mp-1044623,Mg(SbO2)2,1.8709000000000002,0
mp-758770,Li2Mg3Ti6O16,3.3131,0
mp-570931,SrLi3MnN3,0.0,0
mp-767661,Li2VF5,2.3638000000000003,0
mp-677305,Li17Ti20O40,0.0,0
mp-695815,BeP2(HO)4,5.9704,0
mp-759141,LiBi(PO3)4,4.4313,0
mp-1020060,LiB(S2O7)2,5.51,0
mp-631313,SrHf2Mo,0.0,0
mp-573274,CsNb3SBr7,0.0040000000000000036,0
mp-569760,Dy5Pb3,0.0,0
mp-632759,CuH4(OF)2,0.2541,0
mp-771904,Li6Mn2P(CO4)4,0.0,0
mp-775944,Ba2Ti6N2O11,1.4450000000000003,0
mp-865601,Lu2RuRh,0.0,0
mp-617543,Th(InBr3)2,2.7543,0
mp-3078,CdSiAs2,0.40090000000000003,0
mp-23843,LiHSeO3,4.3019,0
mp-541047,ZrAlPd2,0.0,0
mp-625824,Sr(H8O5)2,3.4704,0
mp-28577,RbBrF4,3.3548,0
mp-680674,Cs3Bi2Br9,2.6140999999999996,0
mp-667380,Rb3Nd2(NO3)9,3.4486,0
mp-683947,SiO2,5.2101999999999995,0
mp-996944,Cs2TlInBr6,1.8255,0
mp-754475,Tm2SeO2,1.9537,0
mp-541846,P4O9,5.5643,0
mp-3338,NaGaO2,2.8582,0
mp-767165,K2LiVS4,1.5185,0
mp-1007758,HfCd,0.0,0
mp-13378,TbZnRh,0.0,0
mp-571382,Nd(CoAs)2,0.0,0
mp-568012,Tb2Zn17,0.0,0
mp-2699,CaSi2,0.0,0
mp-780183,Fe2OF3,1.2707000000000002,0
mp-554497,CuSb2(XeF5)4,0.6642999999999999,0
mp-583184,Tl3Ag3(AsS3)2,1.4529000000000005,0
mp-21681,Nb5Ge4,0.0,0
mp-28455,Hg2P2O7,1.4797,0
mp-442,RhPb,0.0,0
mp-29973,SrN,0.0,0
mp-567538,YbCu2,0.0,0
mp-770927,Sm3TaO7,3.4923999999999995,0
mp-865921,MgAlIr2,0.0,0
mp-972808,SiO2,5.5882,0
mp-1042105,AlV(WO4)2,1.7233999999999998,0
mp-17794,HoGe2Ir,0.0,0
mp-981547,PrH3,0.1593,0
mp-762506,SrNiO3,0.0,0
mp-6368,CsSO2F,4.4107,0
mp-1018725,HoFeSi,0.0,0
mp-12770,DySi2,0.0,0
mp-972400,TmBiPd2,0.0,0
mp-696019,Na3P2H4O7,3.5798999999999994,0
mp-698032,Na3H7Ru,2.5195,0
mp-721564,Na3SiH5O6,3.8646999999999996,0
mp-759883,BiOF,2.9652000000000003,0
mp-504353,LiSb(PO3)4,4.6567,0
mp-24179,KH6C2S2NO4,5.3158,0
mp-31817,Li2Fe(PO3)4,3.9524,0
mp-20632,UGa2,0.0,0
mp-1041775,YMn3F15,0.0,0
mp-8109,EuB4O7,2.036500000000001,0
mp-8504,Yb2TeO6,0.0,0
mp-37108,Sr(NdS2)2,2.1031999999999997,0
mp-548598,U(BiO3)2,1.593,0
mp-4598,Sr4PtO6,2.2142999999999997,0
mp-698424,SbH3CS2N,0.7138000000000002,0
mp-1001012,Sc2ZnS4,0.5765000000000002,0
mp-849335,Ti3N2O3,1.6496999999999997,0
mp-556161,ZnS,2.0379,0
mp-3204,YbSnPd,0.0,0
mp-20225,CePb3,0.0,0
mp-569613,Ba2P7Cl,1.5636999999999994,0
mp-772833,Y2HfO5,3.9515000000000002,0
mp-559708,Li6ZrBeF12,6.1837,0
mp-12263,LiAuF4,2.0738,0
mp-545500,BaSbClO2,2.881,0
mp-769580,V3(PO4)2,2.1649999999999996,0
mp-1002573,MnHO2,0.6677000000000004,0
mp-754550,Tb3TaO7,3.3976999999999995,0
mp-614,NaO2,0.0,0
mp-11016,RbCd(NO2)3,2.352,0
mp-27370,P10Au7I,0.5276999999999994,0
mp-774466,CoP6(WO8)3,0.0,0
mp-20608,Tb2In,0.0,0
mp-16267,Dy2CdS4,1.0877,0
mp-772516,LiCoPO4,2.8169,0
mp-557311,Sr2GeO4,3.566,0
mp-13222,SmMg2Cu9,0.0,0
mp-775231,NiSb3(PO4)6,0.0,0
mp-1008624,YBiPd,0.0,0
mp-1018153,HfAu2,0.0,0
mp-753830,Tm2Sb2O7,1.4172000000000002,0
mp-569803,B2W,0.0,0
mp-18583,Ti4Si7Ni4,0.0,0
mp-721193,H2Ru4(CO)13,1.7978999999999998,0
mp-13870,TaSe2,0.0,0
mp-25907,LiSn(PO3)4,0.0,0
mp-709723,Al2P3H17C4(NO6)2,5.226100000000001,0
mp-775116,MnCr3(PO4)4,1.0877000000000003,0
mp-30657,TiGaNi2,0.0,0
mp-777443,Li2FeF6,0.0,0
mp-4974,La2Zr2O7,3.7409,0
mp-541878,K2Ge2S5,2.3159,0
mp-31745,Cr(PO3)4,0.0,0
mp-862334,Sc2IrRh,0.0,0
mp-1046713,ZnFePO5,1.8076,0
mp-1013585,Sr3BiSb,0.0,0
mp-6152,La2ZnIrO6,0.0,0
mp-1040786,Zn(WO2)2,0.17659999999999965,0
mp-561260,Na2CaP2O7,4.954700000000001,0
mp-5933,BaTiO3,1.7270000000000003,0
mp-562100,NbS3,0.3977000000000004,0
mp-1043634,CaMn(Si2O5)2,2.7891999999999997,0
mp-1029031,MoW3(SeS)4,0.7807000000000004,0
mp-1016823,BaGeO3,0.0,0
mp-760217,NaTi4O8,0.0,0
mp-1018124,Ti2Rh,0.0,0
mp-1018055,HfIr,0.0,0
mp-1044693,Ca(SbO2)2,0.6950000000000003,0
mp-707081,Ca3P4H20(NO10)2,4.9331,0
mp-759767,LiCu(PO3)3,0.6400999999999999,0
mp-561472,Hg2PO3F,1.4468,0
mp-560829,Na2BeSiO4,2.9149,0
mp-573581,Na2TeSe3,1.1915000000000002,0
mp-19950,Dy2Ti3Si4,0.0,0
mp-19788,Tb2Ge2Ru,0.0,0
mp-1150,URh3,0.0,0
mp-557645,K5NaS4(ClO6)2,5.1579,0
mp-2413,Ce3Al,0.0,0
mp-4867,CaAl4O7,3.9982,0
mp-7594,CsLiF2,6.2744,0
mp-973911,Pa3Re,0.0,0
mp-723120,BaH6C4O7,2.6483,0
mp-772668,Li3MnSiCO7,0.8431000000000002,0
mp-978508,Si3Os,0.0,0
mp-23774,K2LiAlH6,2.5761,0
mp-1016853,CaVO3,0.0,0
mp-767365,SnP4O11,3.9191000000000003,0
mp-696961,BeH4NF3,6.0878,0
mp-980055,YErMg2,0.0,0
mp-758107,Yb2P4O13,0.0,0
mp-567748,Zr2Al3C4,0.0,0
mp-752706,CeZr11O24,1.9568000000000003,0
mp-7779,Li2NdAs2,0.0,0
mp-510706,Er4Si9Ir13,0.0,0
mp-1027486,Te2MoWS2,0.16610000000000014,0
mp-626155,H4N2O3,0.0,0
mp-20449,CeInIr,0.0,0
mp-624399,CdI2,2.3414,0
mp-625957,Ta2H4O7,3.0296,0
mp-27968,Li6Ge2O7,3.8132,0
mp-697025,HI,4.0739,0
mp-850978,VFeO4,1.7642,0
mp-23034,SrZnCl4,4.298,0
mp-768970,Li2BiO3,0.0,0
mp-23210,MgCl2,5.6168,0
mp-767086,Li5MgTi12O24,0.0,0
mp-1008728,Ni,0.0,0
mp-707440,Sr2Mg3H10,2.8642000000000003,0
mp-631480,IrOs2Br,0.0,0
mp-27589,Cu5(PO5)2,0.0,0
mp-27837,NaHF2,6.9678,0
mp-2939,BaTbO3,0.0,0
mp-21858,UO3,1.9038,0
mp-866617,Cs2Sr2(CO3)3,4.6054,0
mp-13396,LiIn2Rh,0.0,0
mp-756202,Ba2SrI6,3.5957999999999997,0
mp-974748,Rb3Tm,0.0,0
mp-755116,In2Pt2O7,2.049200000000001,0
mp-19009,NiO,2.3008999999999995,0
mp-1027143,MoWSeS3,0.5151000000000003,0
mp-14469,KHg(PO3)3,3.0374999999999996,0
mp-39008,AlBr4,0.0,0
mp-344,BN,3.5766,0
mp-675543,Bi2PbSe4,0.4493000000000005,0
mp-686268,Cu2H4C4N3O,0.0,0
mp-757663,LiSn(PO3)4,0.0,0
mp-20621,NbInS2,0.0,0
mp-694534,LiFeP2O7,1.5153,0
mp-771194,Nb2Ge2O7,1.8118,0
mp-864800,Yb2PdAu,0.0,0
mp-770660,Li12CrGa11O24,1.3460999999999999,0
mp-643656,Li5H9Pt2,0.0,0
mp-767699,LiVF4,2.2028,0
mp-8922,Cd(SbO3)2,1.4136000000000006,0
mp-16564,ZnCu2SnSe4,0.0,0
mp-865213,Ba8Bi4H2O,0.5637000000000003,0
mp-1009592,CrFeTe,0.0,0
mp-2910,KAlF4,6.9377,0
mp-569196,YNi3,0.0,0
mp-28722,Pt(SCl3)2,1.8217,0
mp-542512,NaPr2RuO6,0.4730000000000003,0
mp-13068,Lu2O3,4.0808,0
mp-756188,LiCu3O4,0.0,0
mp-554882,DyCuTe2ClO6,0.39460000000000006,0
mp-1042694,Mg2Mn3O8,1.0169000000000001,0
mp-7560,LuBO3,5.3023,0
mp-680552,Nd3Sn13Rh4,0.0,0
mp-733613,H6AuBrN2,3.7314000000000003,0
mp-603907,MgSiO3,5.0422,0
mp-780630,LiVP2HO8,1.4215,0
mp-644276,Na2Sn(H2N)6,1.214,0
mp-561196,ZnS,2.027,0
mp-646008,Gd10S19,0.3403999999999998,0
mp-999508,MnSiNi2,0.0,0
mp-640045,Ti8Bi9,0.0,0
mp-1047531,Ca3Fe3(AsO4)4,2.3041,0
mp-977558,MgPaRu2,0.0,0
mp-781757,TaNbO5,2.487,0
mp-5372,RbFeS2,0.0,0
mp-26074,Bi2(PO4)3,0.0048000000000000265,0
mp-27944,TlAgSe2,0.0,0
mp-677288,Mg5AlH21O17,1.7189999999999999,0
mp-977455,PaAgO3,0.9148999999999998,0
mp-27878,NaSb5O8,2.6771,0
mp-5807,Mn(SbS2)2,0.0,0
mp-771903,Fe5Cu(PO4)6,0.5262,0
mp-27810,Ba(GeAs)2,0.024799999999999933,0
mp-755515,Lu2TeO6,2.9821999999999997,0
mp-28741,CuSe3Br,1.0298999999999998,0
mp-758337,Ca2P6O17,5.3661,0
mp-780977,Li4MnFe3(BO3)4,3.1115000000000004,0
mp-10426,Nb2O5,1.8521999999999998,0
mp-1027780,Te2Mo3WS6,0.0,0
mp-1029505,Ba(MoN2)2,0.0,0
mp-1026911,MoW(SeS)2,0.5913000000000004,0
mp-612740,In2Se3,0.9903,0
mp-30951,CsTi2I7,0.19019999999999992,0
mp-20717,CrAs,0.0,0
mp-11112,Tb(BO2)3,4.9842,0
mp-541622,KCu3Te2,0.4272,0
mp-569567,C,4.4277,0
mp-1029959,Ca2MnN3,0.0,0
mp-552992,DyBi2BrO4,1.3290000000000002,0
mp-27211,KSb4F13,4.6612,0
mp-11412,ScGa2,0.0,0
mp-551675,Li3UO4,0.3780000000000001,0
mp-6873,CaAlSiO4F,5.2058,0
mp-973957,La2ZnAg,0.0,0
mp-21367,LaIn2Pd,0.0,0
mp-556655,Li2AlBO4,4.864,0
mp-775429,Ba4LiBi3O11,0.0,0
mp-1048269,MgFeP2O7,3.8048,0
mp-1019611,Cs2Na2Sr(B3O5)6,5.6254,0
mp-554973,TlCuF3,0.0,0
mp-12802,AlCu3,0.0,0
mp-998428,CsCaI3,3.6642,0
mp-558534,Tm3B5O12,5.3919,0
mp-6094,Ca2MgSi2O7,4.467700000000001,0
mp-977363,Ta2TcMo,0.0,0
mp-554688,Ba6Hf5S16,0.5949,0
mp-21475,SmInCu2,0.0,0
mp-1857,YbCd,0.0,0
mp-1950,SrS2,1.2822,0
mp-569666,CdI2,2.4072,0