mp_id,formula,band_gap,fidelity
mp-672966,LiCu(PO3)4,0.6957,0
mp-861882,LiGeIr2,0.0,0
mp-29286,TlSbF4,3.8659000000000003,0
mp-754483,Na3(CuO2)2,0.0,0
mp-753833,Li2CrS4,0.0,0
mp-568779,Tb3CuSiSe7,1.4882,0
mp-1018085,CoSnRh2,0.0,0
mp-556171,CdP2Xe5F22,2.4129,0
mp-7070,Mn3PtN,0.0,0
mp-860960,Ba4(PtO3)3,1.5671000000000004,0
mp-19056,HoMnO3,0.0,0
mp-639335,MnSbSe2Br,0.18320000000000025,0
mp-4603,Nd3Co13B2,0.0,0
mp-974523,NdErTl2,0.0,0
mp-561647,Cs2TeOF4,5.0193,0
mp-558463,NaTeH12(CO)3,2.0122,0
mp-2826,Lu2S3,2.5704000000000002,0
mp-7302,CrP4,0.0,0
mp-866007,DyMgTl2,0.0,0
mp-768516,Ti2(SO4)3,0.0,0
mp-579224,P4S9,2.7121000000000004,0
mp-13171,YMgCu,0.0,0
mp-541312,Ge3(Te3As)2,0.3445999999999998,0
mp-1042247,Si2WO6,2.9590000000000005,0
mp-30130,Bi4I2O5,2.2374,0
mp-757917,Be(GaO2)2,2.8901000000000003,0
mp-7020,LiYO2,4.108199999999999,0
mp-1020162,Na4Mg3P4O15,4.7301,0
mp-1028626,Te4MoW3(SeS)2,0.0,0
mp-640564,AgSbC6N4(OF3)2,1.4559,0
mp-31076,Tl2TeBr6,2.1666,0
mp-684592,HN,1.8061,0
mp-977549,Zr2OsRu,0.0,0
mp-1041282,WO2,1.6055000000000001,0
mp-2252,ScB2,0.0,0
mp-554089,SiO2,5.660399999999999,0
mp-12549,BaAl9Ni2,0.0,0
mp-768890,Li4B2O5,4.8277,0
mp-972324,Tc3As,0.0,0
mp-867162,LiTm2Rh,0.0,0
mp-696132,Zr5ZnPb3,0.0,0
mp-680482,AgMo6Br13,2.0137,0
mp-30908,Ag3PSe4,0.1682999999999999,0
mp-505088,NbTe4I,0.49049999999999994,0
mp-1028930,MoW3(SeS)4,0.7551999999999999,0
mp-6244,HoCuPbSe3,1.1874000000000002,0
mp-862912,PmHgAu2,0.0,0
mp-1048496,Ba2Co3O7,0.0,0
mp-1046840,Nb2Zn2CuO8,0.0535000000000001,0
mp-560242,NaMnF3,2.6871,0
mp-581877,Cs2Zr(Si2O5)3,4.946899999999999,0
mp-1048035,Ba2YSn3O7,0.0,0
mp-22717,CaIn2Pd,0.0,0
mp-866037,GaNiRh2,0.0,0
mp-8212,Cd(PtO2)3,0.2256999999999998,0
mp-7924,Li2Sn5,0.0,0
mp-975909,LiAu3,0.0,0
mp-16842,Nb5Ge3,0.0,0
mp-541709,Nb3Tl2Br9,1.0296,0
mp-2373,PrFe2,0.0,0
mp-866662,K5La4Si4O16F,4.661,0
mp-505531,FeS,0.0,0
mp-22610,Mn2SnW,0.0,0
mp-557360,AsPCl3OF5,4.5067,0
mp-28651,Cs2IrCl6,0.0,0
mp-28679,NaGaBr4,3.4829999999999997,0
mp-6778,BaYbSi4N7,0.0,0
mp-1028843,Te3MoWSe,0.33389999999999986,0
mp-558151,Ag2PO3F,1.0774,0
mp-2800,USi3,0.0,0
mp-684680,Yb2S3,1.4034999999999997,0
mp-769070,BaY4Cl14,4.0974,0
mp-12046,Rb3Na(RuO4)2,0.5102,0
mp-571539,CdI2,2.3609,0
mp-989525,Cs2RbPbF6,0.0,0
mp-765688,LaAl12O19,0.0,0
mp-7604,Mg3NF3,3.5817,0
mp-30106,AsCl5,1.4376,0
mp-977438,MgInRh2,0.0,0
mp-574379,CsHg2,0.0,0
mp-695850,CdCl2,3.5144,0
mp-686674,Ba2La3Si3O12F,4.109400000000001,0
mp-21432,LaPb3,0.0,0
mp-22046,B,0.0,0
mp-695505,K2LiNb6(PO8)3,2.2981,0
mp-653823,Re2Te4Cl22O,0.08639999999999992,0
mp-8416,BaCaGaF7,5.8537,0
mp-30365,BeAu,0.0,0
mp-30557,YGa2Co3,0.0,0
mp-2738,DyNi,0.0,0
mp-768301,Ho2B4O9,5.659700000000001,0
mp-30898,Ce2B2Ir5,0.0,0
mp-3813,Ba2ZrS4,0.6025,0
mp-10520,LiNdTiO4,2.2825,0
mp-1045790,MgFe(PO3)4,4.2169,0
mp-1682,ZrAs,0.0,0
mp-567730,Pr2B3Cl,0.0,0
mp-4019,CaTiO3,2.3238,0
mp-780106,FeNi(PO4)2,0.0,0
mp-24294,HgHClO4,2.3817,0
mp-27533,P2Pd15,0.0,0
mp-554711,CSCl2,2.9369,0
mp-766597,Li4Ti5S12,1.0319000000000003,0
mp-30988,KBiO2,1.8496000000000001,0
mp-771364,Li6CrSn3(PO4)6,1.9426,0
mp-571281,Ge3N4,1.6109999999999998,0
mp-754659,Zr3N2O3,2.7098,0
mp-6217,LaSc3(BO3)4,4.2334,0
mp-27273,Ti9O17,0.0,0
mp-487,MnP4,0.4347000000000012,0
mp-5614,Li3BS3,3.0495,0
mp-3267,TlSb5S8,1.5463999999999998,0
mp-761842,Hf3SnO8,3.5824999999999996,0
mp-5786,U(SiOs)2,0.0,0
mp-774355,Li3Co2(SiO4)2,0.5406999999999997,0
mp-557385,K4Ru(NO2)6,2.3638,0
mp-771956,Tb2Zr2O7,4.0184,0
mp-760539,Li2Ti3O6,0.0,0
mp-1003317,Mn3HO6,0.0,0
mp-776984,HoInO3,2.5765,0
mp-11770,CoCu2SnS4,0.0,0
mp-865165,HfScCo2,0.0,0
mp-5149,NbAlCo2,0.0,0
mp-613306,KAg3Te2,0.0,0
mp-561447,K3AlB8O15,5.0001,0
mp-772410,Ti(SO4)2,2.2732,0
mp-568299,K2PtC4(BrN2)2,1.9428999999999998,0
mp-31266,YPS4,2.1327,0
mp-28130,Nb(PS4)2,1.4379999999999997,0
mp-1041153,HoZn(NiO3)2,0.0,0
mp-989468,B2(CN2)3,2.6694999999999993,0
mp-5874,TlAgTe,0.6385000000000005,0
mp-1009734,RhN,0.0,0
mp-27994,HgBrO3,3.1922,0
mp-15707,TbB2C,0.0,0
mp-540702,Fe7Se8,0.0,0
mp-631523,TcNiW,0.0,0
mp-605120,CuH10SO9,0.009199999999999986,0
mp-755260,Cd4B6O13,2.4314,0
mp-972520,SmSnRh2,0.0,0
mp-3726,Li2GaPt,0.0,0
mp-11027,Cs3Hg20,0.0,0
mp-985438,Ce2CdHg,0.0,0
mp-569309,RbMnCl3,1.3133000000000001,0
mp-781754,Li3Mn2(P2O7)2,0.0,0
mp-675244,Yb(NdS2)2,2.0395,0
mp-704536,Be3Fe4Si3SeO12,3.1008000000000004,0
mp-7991,BN,4.2732,0
mp-559335,ZnAg2C4(SN)4,3.0002999999999997,0
mp-779239,Li3MnV(PO4)3,0.3245,0
mp-505443,Na3(FeSe2)2,0.0,0
mp-676780,LiMn9Se10,0.0,0
mp-849464,Li3Mn5(CuO6)2,0.0,0
mp-643945,TiFeH2,0.0,0
mp-777963,Li3SbH18S4O9,2.1608,0
mp-1044814,Mg(BiO2)2,1.388,0
mp-1041175,ZnAg3P3O13,0.0,0
mp-1029595,Na3OsN2,0.6867000000000001,0
mp-973834,PdAu3,0.0,0
mp-33797,Sr(RuO3)2,0.0,0
mp-22288,BaCe2CoS5,0.0,0
mp-1043752,Sr2AlCrCu2O7,0.0,0
mp-773145,Li2Cr4O13,1.3539000000000003,0
mp-1018072,KTiS2,0.0,0
mp-36775,SrAl2O4,3.9618999999999995,0
mp-29380,K2Te2As,0.9603999999999999,0
mp-31405,Mg4AlSi6,0.0,0
mp-557244,SiO2,5.1733,0
mp-696125,Li10Si(PO6)2,5.2544,0
mp-20557,YSiNi,0.0,0
mp-2529,PrRh2,0.0,0
mp-29819,Ba2Si3Ni,0.0,0
mp-1019529,Ba8Al10B12O41,4.4373,0
mp-862869,Pa2S3,0.0,0
mp-682592,K2Ca2C2O3F2,0.3043,0
mp-778752,In2WO6,2.4632000000000005,0
mp-24618,AlH10N2OF5,6.1343,0
mp-10811,NaSr4(BN2)3,1.9682,0
mp-772440,Li2Mn(BO2)5,1.2029,0
mp-979937,Yb3Ru,0.0,0
mp-697331,Mg2NiH4,1.5718999999999999,0
mp-1029711,NaVN2,0.8515999999999999,0
mp-32826,Dy2S3,1.9090999999999996,0
mp-540415,LiMnP2O7,0.6864999999999999,0
mp-20888,TmGeRu,0.0,0
mp-768103,NaVPCO7,1.9201,0
mp-1988,Y5Mg24,0.0,0
mp-7761,Sb,0.0,0
mp-743,RbN3,4.1735999999999995,0
mp-773463,K2CoPCO7,0.9361,0
mp-29008,Li6MgBr8,4.6843,0
mp-1041140,MgTi3P3O13,0.0,0
mp-695536,LaH6S3(NO3)3,4.2155,0
mp-760991,NaNb2O4,0.0,0
mp-999124,TbPd,0.0,0
mp-849319,Dy(Bi3O5)4,0.0,0
mp-1046661,ZnSiNiO5,0.30169999999999986,0
mp-631378,Cs7NbIn3As5,1.1113,0
mp-985590,SiO2,5.515899999999999,0
mp-17569,SmPtF7,2.3817,0
mp-740759,Yb19(Mg4H27)2,2.7756000000000003,0
mp-4575,MgGeO3,2.9034000000000004,0
mp-26299,LiSnPO4,3.8438000000000003,0
mp-676416,V2CN,0.0,0
mp-3677,MgSiN2,3.9662000000000006,0
mp-757458,Tl8Os8O27,0.0,0
mp-1028607,Te4MoW3Se4,0.1368999999999998,0
mp-1042710,MgCr4O6,0.0,0
mp-15483,Zn3(AsO4)2,1.8965,0
mp-567981,CrGaCo2,0.0,0
mp-557213,Te2Xe(OF5)2,2.2917,0
mp-18786,Ca2CoSi2O7,3.0560000000000005,0
mp-14797,RbPt2Se3,1.0060000000000002,0
mp-761922,LiNb(TeO4)3,1.4654000000000003,0
mp-21232,TmInRh,0.0,0
mp-1030107,Te6MoW3Se2,0.31820000000000004,0
mp-850750,LiV2P4(HO8)2,1.0907999999999998,0
mp-861654,HoInPd2,0.0,0
mp-1028583,Te6MoW3Se2,0.3292999999999999,0
mp-555407,Nd6Si4S17,2.5163,0
mp-16454,BaPr2ZnS5,1.1719999999999997,0
mp-510040,Zr2Ni2Sn,0.0,0
mp-1041012,Mg(CoO2)2,0.0,0
mp-9160,La4Au2O9,1.9691,0
mp-572,SmCd,0.0,0
mp-626308,Ca(H8O5)2,3.3662,0
mp-754599,BaTm2O4,3.2296999999999993,0
mp-760927,NaTiPO5,2.7735000000000003,0
mp-775004,Fe3P6WO24,0.0837,0
mp-570548,NaPr4I7N2,2.7083000000000004,0
mp-14280,Ga2Sn2S5,1.6968,0
mp-1029686,Sr3OsN3,0.0,0
mp-635471,CeBi,0.0,0
mp-1018175,ThAu,0.0,0
mp-677497,SrMg2Al6(Si3O10)3,3.8360000000000003,0
mp-569454,CdHgAsBr,1.0028000000000001,0
mp-12927,Ba(BeN)2,1.1717,0
mp-559777,Na5Ca2Al(PO4)4,4.6495999999999995,0
mp-1046346,Ba2TlCo2O7,0.0,0
mp-555770,RbH4SNO4,5.0051,0
mp-20303,LaIn4Ni,0.0,0
mp-707392,Mg3B2P2(H9O10)2,5.0287,0
mp-862360,Sc2NiIr,0.0,0
mp-560209,Li9Al3P8O29,5.3492999999999995,0
mp-37614,Al2NiO4,3.4756,0
mp-13398,Yb(MnSi)2,0.0,0
mp-778815,Li2CoP2O7,2.9811000000000005,0
mp-953,NbZn3,0.0,0
mp-974832,Rb3Pb,0.0,0
mp-560300,Nd3CuSnS7,1.7587000000000002,0
mp-10474,NaPF6,7.008900000000001,0
mp-3653,Mg(SbO3)2,1.0374999999999996,0
mp-641924,Bi2PbS4,1.0821000000000005,0
mp-16737,Na2BeB2O5,4.7145,0
mp-556834,RuCl(OF3)2,0.5690999999999999,0
mp-567342,Nd4MgIr,0.0,0
mp-23026,CsAuCl3,0.0,0
mp-561465,TlSbO3,2.1507,0
mp-24547,ZnH2(SeO4)2,2.7238,0
mp-769377,SbSO4F3,1.8163,0
mp-752473,SmTh4O10,0.0,0
mp-1029469,ZnSnN2,0.12070000000000025,0
mp-770695,Rb3PbO3,0.15280000000000005,0
mp-759526,Bi2O3,1.7255000000000003,0
mp-849542,Li2MnVP2(HO5)2,0.5762,0
mp-766,As2Ru,0.44920000000000027,0
mp-8658,CsNaSe,2.027,0
mp-754047,Rb3SbO3,2.3795,0
mp-705472,AsS,0.9440000000000001,0
mp-23257,IF5,4.6815,0
mp-12181,BaSnS2,1.6394000000000002,0
mp-1048014,Mg(BiO2)4,0.4612000000000003,0
mp-861980,PaGaTc2,0.0,0
mp-567334,Ag(BCl)6,2.6955,0
mp-679985,Ba3In4(CuO4)3,0.26529999999999987,0
mp-21531,U2Mn3Si5,0.0,0
mp-755552,LiYS2,0.37670000000000003,0
mp-849537,V6O11,0.4496000000000002,0
mp-20715,Pr2InGe2,0.0,0
mp-556074,K2Cu3(SeO3)4,0.08140000000000014,0
mp-677572,Na8Al11Si13(AgO16)3,2.167,0
mp-768451,Cu2(SO4)3,0.028799999999999937,0
mp-776640,Ti5Cr(PO4)6,0.0,0
mp-17929,RbHo2Cu3S5,1.4781999999999993,0
mp-28829,Li2ZnBr4,3.777,0
mp-561467,YAg3(PS4)2,1.9989999999999997,0
mp-570438,Yb8Tl3,0.0,0
mp-1052,NaAu2,0.0,0
mp-542331,Zn2P2O7,3.6266000000000003,0
mp-680159,CsTa6PbCl18,0.0,0
mp-19073,La2Ni2O5,2.0234999999999994,0
mp-755691,Li2BiO2,0.0,0
mp-8128,NaNdO2,3.3339,0
mp-18506,SmZrF7,6.050800000000001,0
mp-770489,Li6Cr3Fe(PO4)6,2.3775999999999997,0
mp-863744,Ca2PdAu,0.0,0
mp-675976,KPO3,0.7652000000000001,0
mp-765750,Li5Cr2Fe3O10,1.0364,0
mp-865051,NaCa2Tl,0.0,0
mp-703574,CaH2(SO4)2,5.836,0
mp-1047978,Mg(SnO2)4,0.0,0
mp-570552,CdI2,2.4063999999999997,0
mp-24595,Ca2B5H2ClO10,5.0182,0
mp-657234,K3TiCl6,0.0,0
mp-21172,PuPb3,0.0,0
mp-570670,YOs2,0.0,0
mp-669496,PtI4,0.6934,0
mp-1029407,NaCrN2,0.0,0
mp-862631,Ba2SbAu,0.5970999999999997,0
mp-1030574,Te4MoW3(SeS)2,0.0,0
mp-13530,SmAsO4,3.7321999999999997,0
mp-758863,Sn2N2O,0.0,0
mp-981397,YbPrMg2,0.0,0
mp-28665,NdSi2Ru,0.0,0
mp-601292,RbPrP3HO10,4.8166,0
mp-12947,LaMgCu2,0.0,0
mp-555939,Li2Te2O5,3.1057999999999995,0
mp-1044425,BaMg(FeO2)4,1.6564,0
mp-674463,AlHO2,4.7101,0
mp-3236,Pr2SO2,2.8586000000000005,0
mp-557832,K2Cd(AuS)4,2.031,0
mp-976289,NaCd2Au,0.0,0
mp-1727,SrSi2,0.0,0
mp-680008,P6N6Cl10O,4.1073,0
mp-2278,HgO2,0.11099999999999999,0
mp-866018,Ac2ZnGe,0.0,0
mp-772423,Ni(SO4)2,0.02510000000000001,0
mp-978,Sr2Sn,0.15569999999999995,0
mp-776018,SrTiO3,1.7362000000000002,0
mp-776168,AgRuO3,0.0,0
mp-1042054,ZnFeP2O7,3.3544,0
mp-557580,CdHg4C6S6(Br2N3)2,1.866,0
mp-11309,NbCd3,0.0,0
mp-28899,Hg2As3Br,0.8938000000000001,0
mp-627141,Si2H2O3,1.8384000000000005,0
mp-554782,Li2Ga2GeS6,2.1339,0
mp-1027173,TeMoWSeS2,0.0,0
mp-974734,KInO3,0.0,0
mp-639690,PuS2,0.0,0
mp-557130,Zn2TeCl2O3,3.6546,0
mp-32024,Li3Mn2(PO4)3,0.9513,0
mp-571464,RbPSe3,1.1229999999999998,0
mp-699248,Sr2B5H2O11,0.9298,0
mp-8200,AgP2,0.6555,0
mp-561512,K4Cu4Cl10O,0.0,0
mp-21049,GdMg2,0.0,0
mp-764746,Li5V7O12,0.21870000000000012,0
mp-769633,NaFePCO7,0.06909999999999994,0
mp-2585,Sr5Sb3,0.0,0
mp-1042523,Ca2Ti3O8,2.4456999999999995,0
mp-541124,Y6Ni20P13,0.0,0
mp-1042151,BaYCuSbO5,0.0,0
mp-776213,Hf2N2O,2.0317999999999996,0
mp-631324,HfMnTl,0.0,0
mp-9702,Sr3BPO3,2.0155,0
mp-773751,Fe3(OF2)2,1.2595,0
mp-777686,Li9Mn3(WO4)7,0.0,0
mp-9235,LaNiSb,0.0,0
mp-1048765,Mg(SbO3)2,1.5252,0
mp-643276,LiMg2H7Ru,3.1510000000000002,0
mp-672226,BaMnSi2,0.0,0
mp-18466,Nd2SiSeO4,2.6009,0
mp-865615,GaSiRu2,0.0,0
mp-571008,Pr(CoAs)2,0.0,0
mp-22756,K2PbO3,1.2096,0
mp-864984,MnV3,0.0,0
mp-561075,Na2CdSnS4,1.9195999999999998,0
mp-772993,Li2Ti7Nb6O30,2.2457000000000003,0
mp-568817,H9C4Se2N,3.5264,0
mp-11175,LiZnPS4,2.7311999999999994,0
mp-755717,SmHoO3,4.5947,0
mp-548691,Sr2ZnReO6,0.0,0
mp-569411,La3ScBi5,0.0,0
mp-555644,Al2Tl3(PO4)3,3.4349,0
mp-775320,Li4V3O8,1.723,0
mp-555018,RbNa2AuO2,2.0954,0
mp-562090,CuCClO,2.3667,0
mp-1042285,AlSn(WO4)2,0.16970000000000063,0
mp-560323,H11C4NO10,3.4288,0
mp-30728,HoIn,0.0,0
mp-780406,Lu4Al2O9,4.1419,0
mp-567885,C3N4,1.4139000000000004,0
mp-769635,Li2VCrO4,1.3192,0
mp-866016,AcBiAu2,0.0,0
mp-15634,Cs2NaTiF6,0.04610000000000003,0
mp-8539,SrSnP,0.0,0
mp-985439,BaPAu,0.0,0
mp-29525,Rb3BiO3,3.1029,0
mp-18075,Na2TiF6,4.666399999999999,0
mp-989651,HfTeSe4,0.9630000000000001,0
mp-1018745,LaSbPd,0.0,0
mp-33302,MgAl2O4,4.2658,0
mp-1044567,BaCa(NiO2)4,0.4914999999999998,0
mp-1020023,Li3AlSiO5,4.7208000000000006,0
mp-772439,Li3AlFeO4,2.4242,0
mp-13854,B3Ru2,0.0,0
mp-630234,Li2Ti3(BiO3)4,0.0,0
mp-510725,SrV3O7,2.3876,0
mp-867349,Dy2MgTl,0.0,0
mp-5308,LaTa3O9,2.7517000000000005,0
mp-982662,Eu2MgSi2O7,0.011800000000000033,0
mp-3216,Li2ZrN2,1.5618999999999996,0
mp-20599,PdPb2,0.0,0
mp-561254,NaLi3GeO4,3.6606,0
mp-17719,La3SiAgS7,1.9689000000000005,0
mp-866818,Ca2SnS4,1.0795,0
mp-1127,SmPt2,0.0,0
mp-14447,Ba2SiSe4,2.2776,0
mp-557798,K5Li2NdF10,6.4521999999999995,0
mp-698549,Ca4Mn4O11,0.0,0
mp-1044526,Ba2YCu2F11,0.8523999999999999,0
mp-31294,Sr2In3Rh2,0.0,0
mp-741593,Ba4Y2Cu4W2O17,0.0,0
mp-510086,Ca2InN,0.0,0
mp-2658,AlFe,0.0,0
mp-667366,PRu5C16(O5F)3,1.6922000000000001,0
mp-2602,NdAs,0.0,0
mp-19854,Pr2In,0.0,0
mp-30673,Ti2Ga3,0.0,0
mp-560670,MgSeO4,3.1255,0
mp-30032,TlIO4,2.0027999999999997,0
mp-561256,Ba2TiOF6,3.8913,0
mp-621624,Tl7Sb2,0.0,0
mp-631548,Tl2SiNi,0.0,0
mp-19465,HoCo(BO2)5,3.1169000000000002,0
mp-20963,Tb3PbC,0.0,0
mp-861746,Li4V3CrO8,1.0314,0
mp-770811,Si2As2O7,4.5533,0
mp-556005,ZnS,2.0467,0
mp-973983,NiPd3,0.0,0
mp-683660,MnC4BrO4,2.5559000000000003,0
mp-540801,K3Mn(CN)6,0.0,0
mp-1047806,MgMo4O9,0.9603999999999999,0
mp-10300,ZrMoP,0.0,0
mp-1029506,CaSiN2,2.1951,0
mp-772395,LiV(OF)2,2.2105,0
mp-21377,Sm,0.0,0
mp-604453,CeBiPd,0.0,0
mp-667283,Sr5Re3ClO15,2.3364000000000003,0
mp-510594,Ho5CoSb2,0.0,0
mp-864635,Ag2Cl3,0.0,0
mp-23838,Zn2PH2CO7,3.5229999999999997,0
mp-642811,KCu2H2(SeO5)2,0.0,0
mp-1048,TiNi,0.0,0
mp-998154,TlAgBr3,0.0,0
mp-972448,SmBS3,2.389,0
mp-8482,LiYbGe,0.0,0
mp-753478,BiOF,2.5707,0
mp-1016848,SrIrO3,0.0,0
mp-692,Tb2C,0.0,0
mp-981458,YbTa,0.0,0
mp-505489,Sc7BCl12,0.0,0
mp-7250,Nb6Co7,0.0,0
mp-770884,Li2SnCSO7,3.7891000000000004,0
mp-18049,Ge5P6O25,3.5718,0
mp-543029,La2TeI2,0.0,0
mp-6383,BaBe2Si2O7,5.5249,0
mp-625937,H7NO6,3.3381,0
mp-1913,ErPt3,0.0,0
mp-669564,CsRe6S8Br3,1.4922,0
mp-1042724,CaCu3(BiO3)4,0.0,0
mp-867130,SmHoMg2,0.0,0
mp-17777,Sr5As3O12F,3.9026000000000005,0
mp-560324,Rb3Hg2S3ClO12,2.3627000000000002,0
mp-30208,YCuP2,0.0,0
mp-1048196,CaMnO2,0.8195000000000001,0
mp-758689,Li3CuF4,0.8418999999999999,0
mp-31138,MnPd3,0.0,0
mp-864924,NdMgHg2,0.0,0
mp-778795,Ta2Zn4O9,2.9448000000000003,0
mp-29934,Zr6Ag7F31,2.799,0
mp-645592,Nb3(BiO3)5,1.2671999999999999,0
mp-765840,Li4V3Co(PO4)4,0.6162999999999998,0
mp-30200,Bi2CO5,1.0710999999999995,0
mp-31419,LaSb5O12,3.0498000000000003,0
mp-13079,Mn2AlCo,0.0,0
mp-23926,K2HgH2Cl4O,2.7153,0
mp-541352,P4S3I2,2.2079,0
mp-6674,LiLa2SbO6,3.885700000000001,0
mp-11499,YMg2,0.0,0
mp-23314,Pr4Bi3,0.0,0
mp-561012,Sr3Cu3(PO4)4,0.5370999999999997,0
mp-774472,PrSO,1.4090000000000007,0
mp-9820,CsAsF6,5.2216,0
mp-19109,FePO4,2.7015000000000002,0
mp-16264,LiCaSb,0.6443000000000003,0
mp-766973,Li8Mn(FeO4)3,0.0,0
mp-776343,WN2,1.4246,0
mp-738714,LiHCO2,5.0243,0
mp-707905,PH7N2O3,4.5874,0
mp-557757,AlPO4,5.632,0
mp-541688,K3GaTe3,1.5257,0
mp-1043844,LaMgVFeO6,1.0621,0
mp-570384,Ba,0.0,0
mp-1044052,MgMo2(PO5)2,0.5431999999999997,0
mp-504613,Ce3(Si4Ni)2,0.0,0
mp-865652,TiMn2Si,0.0,0
mp-760637,LiBiP2O7,3.707,0
mp-776005,Li4FeBi(TeO6)2,0.9091,0
mp-10086,YSF,1.3132000000000001,0
mp-28433,RbClO4,5.4759,0
mp-4355,YTiO3,0.0,0
mp-581941,SmI2,0.0,0
mp-767720,Li2V4Si4O13,1.9006999999999996,0
mp-976417,Nd3Hg,0.0,0
mp-971941,Zn3Ni,0.0,0
mp-755878,Cu6OF11,0.0,0
mp-769510,Li5Ti4Co3O16,0.33640000000000003,0
mp-16733,Sc2GaC,0.0,0
mp-754711,Nb2Pb2O7,0.9375999999999998,0
mp-17036,Tb2Si3Rh,0.0,0
mp-638051,LuNiGe2,0.0,0
mp-14306,Lu2FeS4,0.0,0
mp-612670,YNiBC,0.0,0
mp-977575,MgSbRu2,0.0,0
mp-6870,KBe2BO3F2,6.0552,0
mp-776062,Li2FePO4F,3.9356,0
mp-28821,La2Ni12P5,0.0,0
mp-977207,Li2Mg,0.0,0
mp-972941,NaBi3,0.0,0
mp-1045787,CaCo(PO3)4,3.0923,0
mp-631547,In2ReB,0.0,0
mp-686742,Ag2H21N7(ClO4)2,0.0,0
mp-561664,TeF4,4.0186,0
mp-571260,AlInI4,3.0259,0
mp-582618,Eu2C(NCl)2,0.9358999999999993,0
mp-616260,KYb3F10,0.0,0
mp-642792,BaBi2(MoO4)4,3.0264000000000006,0
mp-19282,Sr2ZnWO6,3.402,0
mp-1357,P3Rh,0.0,0
mp-7791,Li2GeF6,5.7409,0
mp-672695,KAgCO3,1.5687000000000002,0
mp-647343,PBr7,1.2227,0
mp-643905,Sr(H2N)2,2.342,0
mp-1045032,YTi3O6,0.0,0
mp-780295,Li2VO2F,1.5210000000000004,0
mp-2068,RhF3,0.8625999999999999,0
mp-1019319,TcN,0.0,0
mp-2744,LiPd,0.0,0
mp-559689,LiAlSiO4,5.0525,0
mp-998861,Br,0.0,0
mp-23024,SrBrF,5.0003,0
mp-505278,Zr9(NiP2)2,0.0,0
mp-989522,Mg6Bi2PN,0.22609999999999975,0
mp-622628,Cu2SbO5,0.011999999999999567,0
mp-561549,K2Be2(Si2O5)3,4.83,0
mp-697253,SiH12C2(NF)6,5.1981,0
mp-676339,BaTa2O6,3.6189999999999998,0
mp-644763,Zr4Fe2H2O,0.0,0
mp-19066,W3O8,0.0,0
mp-9208,V2B3,0.0,0
mp-1019579,CaMg3SiN4,2.4021,0
mp-28800,K2Bi8Se13,0.8140000000000001,0
mp-764348,LiFeSiO4,2.9041,0
mp-673128,LiCuPO4,0.0,0
mp-556788,SiO2,4.7884,0
mp-5492,SrAl2O4,4.0564,0
mp-504355,Bi(PO3)4,0.0,0
mp-1023939,MoS2,1.5510000000000002,0
mp-1026002,Te2Mo3(SeS)2,0.0,0
mp-9721,Ca3GeO,0.0,0
mp-18819,Ni2P2O7,3.7657,0
mp-1019524,Ba3P6(N4O3)2,4.546600000000001,0
mp-21007,SmSnPt,0.0,0
mp-32684,HBr,4.486000000000001,0
mp-992141,Cs2IBrCl6,0.8589,0
mp-558206,K9U6BiO24,1.7042000000000002,0
mp-756173,Li5FeS4,0.5527,0
mp-19803,CdIn2O4,0.9137000000000004,0
mp-608555,Cs2SnCl6,2.59,0
mp-694933,MgTi3Pb5WO15,1.6852999999999998,0
mp-1029190,Te2MoW3(Se2S)2,0.0,0
mp-1040872,MgTi4O9,2.5450999999999997,0
mp-1018768,Li3LaBi2,0.1578999999999997,0
mp-752785,Sm4U4O17,0.0,0
mp-763342,FeOF,1.0130000000000001,0
mp-607111,AlPt3,0.0,0
mp-5386,Er(SiRh)2,0.0,0
mp-16066,Yb(Ni2P)2,0.0,0
mp-30983,CaP4O11,5.3423,0
mp-542694,HI3O8,2.5131,0
mp-1042238,Mg(BiO2)2,2.5932999999999997,0
mp-761042,NaCu(PO3)3,0.5954999999999997,0
mp-774832,Ba10Li2Bi4O21,0.0,0
mp-975834,MoRu3,0.0,0
mp-569806,K5Na(Ti2Se9)3,0.8225000000000002,0
mp-558446,AgHgSI,1.1391000000000002,0
mp-770043,Li4Ti2Cr3Co3O16,0.0,0
mp-556866,Ag2HgSI2,1.2212000000000003,0
mp-571535,CdI2,2.3615,0
mp-530524,Zr3TlF15,3.4196,0
mp-567129,KLaSi(CN2)4,3.6775999999999995,0
mp-774910,LiSb(TeO4)3,1.2243000000000004,0
mp-561270,SnH4C2NO4F,2.6395,0
mp-705365,Li2V(PO4)2,1.4738,0
mp-773707,Li4Ti3Mn2V3O16,0.9531000000000001,0
mp-558597,NaLiY2F8,7.3027999999999995,0
mp-756732,Rb3Sn4Au,0.5680999999999998,0
mp-772034,Ba3LaI9,2.2280999999999995,0
mp-10410,Ba4Sm2Cd3S10,1.8925999999999998,0
mp-677179,BaNaIn2(PO4)3,3.3426,0
mp-781828,NiH18(I5N3)2,0.7234,0
mp-2211,V3Pt,0.0,0
mp-542779,GdAg,0.0,0
mp-696618,CaB2(H2O3)2,5.5553,0
mp-8310,Li(NiP)2,0.0,0
mp-555716,Tm2Ru2O7,0.0,0
mp-971799,DyYHg2,0.0,0
mp-569071,La5Al3Ni2,0.0,0
mp-1941,GaNi,0.0,0
mp-4449,Tl2SeO4,3.2312000000000003,0
mp-699660,KHo2Cu(MoO4)4,1.1534999999999997,0
mp-865502,YAgHg2,0.0,0
mp-21643,UMn5P3,0.0,0
mp-707532,NaH8SeNO6,3.8639,0
mp-1041974,SbO2,0.0,0
mp-755,CoSb2,0.0,0
mp-8616,ScAg(PS3)2,2.0296,0
mp-865146,MgAsPt5,0.0,0
mp-568718,HfAl3,0.0,0
mp-28027,AsF3,5.359999999999999,0
mp-2784,Na2Te,2.0282,0
mp-1009654,CaGe2,0.0,0
mp-755419,Bi2TeO2,0.5792000000000002,0
mp-557625,Yb3GeO,0.0,0
mp-1048533,CaFeP2O7,3.9894,0
mp-740714,LiB5H2O9,6.0817,0
mp-977013,H6PbCI3N,1.6778,0
mp-18656,GdGaO3,3.3962000000000003,0
mp-22329,NaNd2OsO6,0.5409999999999999,0
mp-1017581,LaPd3C,0.0,0
mp-567301,YbHg6As4Br7,0.0,0
mp-34857,KNO2,2.4904,0
mp-707273,U(BH4)4,0.21369999999999997,0
mp-631619,KCaNi2,0.0,0
mp-13432,Tb2AlCo2,0.0,0
mp-555315,Zr3Cd3AgF20,0.0,0
mp-706276,Li3Nb4O12,0.0,0
mp-14433,NaGe2N3,2.3268,0
mp-14432,GaTe4(MoSe)4,0.0,0
mp-554625,SbS2NCl8,1.8083,0
mp-570306,TlGaI4,2.5666,0
mp-973759,Lu2MgCd,0.0,0
mp-978511,SmPa3,0.0,0
mp-1019257,SmZnGa,0.0,0
mp-10135,YbBPd3,0.0,0
mp-555186,Li2ZnSnS4,2.1985,0
mp-570775,BaAu,0.0,0
mp-568672,YbGeIr,0.0,0
mp-555297,HoH16C2S2NO12,5.4777,0
mp-696944,LaHBr2,3.5973999999999995,0
mp-8607,Na(Cu2Sb)2,0.0,0
mp-16793,Be3Cd4Si3SeO12,2.8506,0
mp-15691,NpAsS,0.0,0
mp-640391,Tm5NiPb3,0.0,0
mp-27318,Sb3(BrF8)2,0.05590000000000006,0
mp-13580,LuGePt,0.0,0
mp-30604,DyGa,0.0,0
mp-16478,Tb2Si5Ru3,0.0,0
mp-1040889,CaCr2P2O9,1.9363000000000006,0
mp-11229,YAl,0.0,0
mp-1042288,MgW2O7,4.0943000000000005,0
mp-776896,Nb2O5,2.4469,0
mp-131,Zr,0.0,0
mp-130,P,0.0,0
mp-1043651,BiSbO5,0.7281000000000001,0
mp-23260,BaI2,3.4525000000000006,0
mp-17119,SrCu3(SnO3)4,0.45310000000000006,0
mp-5000,Tl(CuSe)2,0.0,0
mp-2673,YbPb,0.0,0
mp-556440,CaZr4(PO4)6,4.1838,0
mp-1018661,CePbAu,0.0,0
mp-648263,Os4C13S2O13,2.028,0
mp-14193,K2ThF6,6.3857,0
mp-20581,Ca3In,0.0,0