mp_id,formula,band_gap,fidelity
mp-505113,TiSn6F16,2.7043,0
mp-605173,As3H9RhC3(BrO)3,2.0084,0
mp-978291,Mg3Pa,0.0,0
mp-981366,Zn3N,0.0,0
mp-30984,S(IO3)2,1.8695000000000002,0
mp-1041114,MgSb4O9,0.0,0
mp-28928,DySBr,2.8776,0
mp-8951,SmAsPd,0.0,0
mp-608031,NaNpCO5,0.05830000000000002,0
mp-21108,U6Fe,0.0,0
mp-29582,Li2CrCl4,0.5017999999999998,0
mp-568838,Hg4I7,0.0,0
mp-5578,LuB2Ru3,0.0,0
mp-768267,HoInO3,1.9681000000000002,0
mp-571622,Be12Pt,0.0,0
mp-778147,Na5Bi2P(CO4)4,0.5547999999999997,0
mp-1046321,CaCrO2,1.5743,0
mp-756922,Ho2SO2,2.8694000000000006,0
mp-1047370,Ca3Co3(AsO4)4,2.467,0
mp-559808,Cs3PO4,3.5722999999999994,0
mp-1391,Ag2F,0.0,0
mp-27210,RbTlF4,2.7647,0
mp-1019796,K4P2O7,3.7409,0
mp-12972,Zr6Sb2Pt,0.0,0
mp-1044996,YV3O6,1.1778,0
mp-22735,Ca2Sn,0.056400000000000006,0
mp-755206,Ca2Ti6N2O11,1.9882999999999997,0
mp-17747,Y3CuSnS7,1.4826000000000006,0
mp-560656,CaTeO3,2.9142,0
mp-555182,Na2Be2(SiO3)3,4.5404,0
mp-33985,Ba(InTe2)2,0.8650000000000002,0
mp-2731,TiGa3,0.0,0
mp-777675,Li3V5O12,1.2119,0
mp-972216,Sr2SmSbO6,3.6039,0
mp-5330,LaAlSi2,0.0,0
mp-9209,In2(SO4)3,3.6946000000000003,0
mp-581775,Cs5(KPb6)3,0.7385999999999999,0
mp-18684,KPF6,7.2209,0
mp-753425,LiCuCO3,1.7011,0
mp-22568,V3Ga,0.0,0
mp-631754,ReSnGe,0.0,0
mp-980664,UBiSb,0.0,0
mp-27255,Ga2TeS2,1.1978,0
mp-766966,K2InH2Cl5O,3.4497999999999998,0
mp-696210,BH5CN2,5.4699,0
mp-756241,PrBiO4,0.7488999999999999,0
mp-4487,Er(MnGe)2,0.0,0
mp-7050,ZrTlCuSe3,0.23679999999999968,0
mp-6067,Tl2Cd2(SO4)3,4.0064,0
mp-1002164,GeC,1.6502,0
mp-1018793,LuSe2,0.0,0
mp-122,Ba,0.0,0
mp-5498,Ca(MnAs)2,0.0,0
mp-561384,ZrF4,4.8934,0
mp-513,ErGe3,0.0,0
mp-1728,LuRh2,0.0,0
mp-1027170,Te2MoWSeS,0.19500000000000028,0
mp-228,Te2Rh,0.0,0
mp-1021672,Sr2CuC(NO)2,0.0,0
mp-556697,CaTa2Bi2O9,2.9261,0
mp-775439,Li2Cr3P5O18,0.845,0
mp-569891,Nb5Ge3,0.0,0
mp-776795,BaYBr5,3.8401,0
mp-703275,NaSr3NdTi5O15,1.9141,0
mp-1053,NdZn,0.0,0
mp-27797,Li4H4Rh,0.0,0
mp-20316,PPbSe3,1.6562999999999994,0
mp-1047492,YW3O8,2.2466,0
mp-673047,CuPO4,0.0,0
mp-28070,Rb2TeI6,1.6225,0
mp-640089,CeCd11,0.0,0
mp-12621,NdTeF,0.4204000000000008,0
mp-22978,Rb2MnCl4,1.2907,0
mp-1025910,Te4Mo2WS2,0.18690000000000007,0
mp-29402,KGaI4,2.605,0
mp-559817,Na3(CuO2)2,0.0,0
mp-15438,ZnP4O11,4.755800000000001,0
mp-694852,K5RbZn4Sn5S17,1.612,0
mp-614603,CsI,3.8571999999999997,0
mp-376,PrSn3,0.0,0
mp-1024,CaGe2,0.0,0
mp-36329,SrUO4,1.9691000000000005,0
mp-11846,Pr(AlZn)2,0.0,0
mp-24464,MgH4S2O9,4.2343,0
mp-24811,KTiH2S2O9,0.22050000000000036,0
mp-775787,Hf2N2O,1.6197999999999997,0
mp-1047985,Zn(SnO2)4,0.0,0
mp-1029161,Te4Mo3WSe4,0.06630000000000003,0
mp-759207,LiSb(TeO4)3,1.2295000000000003,0
mp-676814,Cr4(Ga2Se5)3,0.0,0
mp-862716,LiAg3,0.0,0
mp-769253,Dy2SeO2,2.0746999999999995,0
mp-865758,YbGeO3,1.0216000000000003,0
mp-776975,NbO2,0.0,0
mp-34296,Zn(FeO2)2,1.4928,0
mp-545706,Ca3Cu2(BrO2)2,0.0,0
mp-706913,BeH8(NO5)2,3.4834,0
mp-766561,LiNd14(Cu3O14)2,0.0,0
mp-10339,SrNbO3,0.0,0
mp-862364,Sc2OsPt,0.0,0
mp-977383,ZnPd2Au,0.0,0
mp-991676,NbCu3Te4,0.9408000000000003,0
mp-765733,Mn4O7F,0.0,0
mp-773674,Li4Ti3V3(FeO8)2,1.1950000000000003,0
mp-13512,CaNiGe2,0.0,0
mp-540634,TaTl(GeO3)3,3.6578,0
mp-30242,Mg4H2O5,4.006500000000001,0
mp-1017465,BaVO3,0.0,0
mp-998309,CsNaF3,0.0,0
mp-570379,Cs2LiLuCl6,5.3389,0
mp-28905,SrC20,0.31179999999999986,0
mp-22239,GeRh,0.0,0
mp-976411,Li,0.0,0
mp-30282,La2I5,0.17720000000000002,0
mp-30971,CuTe2Cl,0.5969000000000002,0
mp-754149,GdOF,3.2028,0
mp-865713,Li2TlBi,0.006599999999999717,0
mp-676252,Li9(RuO3)10,0.0,0
mp-21453,PrSnPt,0.0,0
mp-698183,Mg3P2(H22O15)2,4.8454,0
mp-559795,Rb7NaZn2O6,1.5706,0
mp-29853,HgCN2,2.4556999999999998,0
mp-625526,Te(HO2)2,1.7198000000000002,0
mp-1047086,MoIrO6,0.0,0
mp-1047813,V3ZnP3O13,1.5596,0
mp-1045038,YCr3O6,1.5385999999999997,0
mp-9930,UPSe,0.0,0
mp-23907,H2,7.4833,0
mp-769856,Li4Fe3NiO8,0.0,0
mp-7643,K2AgSb,1.187,0
mp-999200,Si,1.1825999999999999,0
mp-978926,SmGeO3,0.0,0
mp-7523,Th2TeN2,1.6182999999999996,0
mp-13548,Cs2Pt,1.6768,0
mp-17534,Ho2Ge5Rh3,0.0,0
mp-11965,Ce2CdPd2,0.0,0
mp-776772,Li4Ti2Cr3Sn3O16,0.0,0
mp-754406,Li2CuPO4,1.1851000000000003,0
mp-1025572,WSe2,1.2288999999999999,0
mp-689929,LiV(PO4)2,1.353,0
mp-755109,YErO3,4.5443999999999996,0
mp-2128,Sn4Pd,0.0,0
mp-2350,LaS,0.0,0
mp-757794,Li3HfO3,0.0,0
mp-780477,Li3MnV(PO4)3,0.3342999999999998,0
mp-696992,AgP2H8SN7O2,3.21,0
mp-2720,NdPt2,0.0,0
mp-720469,H6Os5Pt2(CO)17,1.7221000000000002,0
mp-625394,La(HO)3,3.7163999999999997,0
mp-776662,LiCrPO4F,1.4027,0
mp-27770,RhCl3,1.5211999999999999,0
mp-767952,NaMnPCO7,0.9158999999999999,0
mp-1020587,SrMg3SiN4,2.4132999999999996,0
mp-28730,In7Cl9,2.1903000000000006,0
mp-558637,AgTeO3,1.6662000000000003,0
mp-989406,LaTcN3,0.0,0
mp-867352,TcRh3,0.0,0
mp-8640,Hf,0.0,0
mp-566296,SnS8(N2Cl)4,1.5977999999999999,0
mp-1008689,Ti2Si,0.0,0
mp-542595,Ge2W,0.0,0
mp-568017,Ga8Cu3W2,0.0,0
mp-568512,Ba6Mg23,0.0,0
mp-973786,H3Pb,0.0,0
mp-35925,NiO2,1.7854,0
mp-28712,Si2Hg6O7,1.4980000000000002,0
mp-541202,TlCuAsO4,0.008000000000000007,0
mp-24411,K2LiAlH6,2.4373,0
mp-542158,FeNiPO5,1.9968,0
mp-540262,CoP2O7,0.0,0
mp-569294,NdB2Rh2C,0.0,0
mp-13074,LuNiPb,0.0,0
mp-570955,Na2UCl6,0.0,0
mp-13,Fe,0.0,0
mp-12120,FeN,0.0,0
mp-1043669,Co(Si2O5)2,1.0566,0
mp-776200,GdAsO4,3.4222,0
mp-774753,Li5GaO4,3.6955,0
mp-19132,HgWO4,2.2798999999999996,0
mp-862964,PmSmMg2,0.0,0
mp-772159,La6Cu6O17,0.0,0
mp-859132,Li8VO5F,2.0061,0
mp-775206,VSb3(PO4)6,0.0,0
mp-559931,VF3,1.5497999999999998,0
mp-774283,Re2H6PbC(NO5)2,2.4994,0
mp-1045776,AlV4(CuO4)3,0.0,0
mp-755056,CaPbI4,2.628,0
mp-604147,Na2Li(H2N)3,2.1905,0
mp-754739,CaBe3O4,3.9114999999999998,0
mp-775891,Mn3Fe3(SbO8)2,0.0,0
mp-23792,NaCa2Si3HO9,4.8456,0
mp-673833,Li7VAs4,0.893,0
mp-21430,YbPb3,0.0,0
mp-2365,Pr4As3,0.0,0
mp-626724,LaHO2,3.8390000000000004,0
mp-8467,YNiGe3,0.0,0
mp-8094,Ba2Hg,0.0,0
mp-27648,Te2Br,0.6562999999999999,0
mp-634113,Cd2H2SO6,2.616,0
mp-676296,U(BiO2)4,0.0,0
mp-14795,K6CoSe4,0.42710000000000004,0
mp-675012,Ho2Zr8O19,2.4023,0
mp-972551,U3Nb,0.0,0
mp-978289,Mg3Np,0.0,0
mp-2911,Ba3(SnP2)2,0.8061999999999996,0
mp-774252,Li4Cr2Fe3Sb3O16,0.8067000000000002,0
mp-756599,La2ZnO4,3.033,0
mp-5050,Rb(OsO3)2,0.0,0
mp-675452,Ti20H2N17,0.0,0
mp-9703,K2LiGaAs2,0.7546000000000002,0
mp-27814,CS14,2.5353,0
mp-769588,Li3V2S2(O4F3)2,1.0314,0
mp-1019793,K3La(PO4)2,4.484,0
mp-755138,NdInO3,2.6533,0
mp-1009471,NbN,0.0,0
mp-699317,Na2H6C4O7,2.7221,0
mp-27226,MgCu2O3,0.0,0
mp-573588,CdI2,2.3783,0
mp-561352,BaNa2Ti2(Si2O7)2,3.3673,0
mp-571313,Hf(SeCl6)2,2.7918000000000003,0
mp-571626,Mg3Ga7Co2,0.0,0
mp-558137,AlBPbO4,2.7567000000000004,0
mp-973886,Lu2CoRh,0.0,0
mp-762052,Na2Ga11O17,0.0,0
mp-891955,Ca10V6O25,2.3156,0
mp-560501,Tb3CuSiS7,1.7277000000000005,0
mp-754145,TbLuO3,4.6811,0
mp-766035,Bi12Cl5O16,0.0,0
mp-983,RhSe2,0.0,0
mp-6272,NaEuP2O7,0.0,0
mp-1013795,Li3Ge3(MoO6)2,0.0,0
mp-32800,Ac2S3,2.2729,0
mp-18905,FeO,0.0,0
mp-867918,ErPaRu2,0.0,0
mp-569967,K2PrCl5,4.815300000000001,0
mp-999069,Ti2AlFe,0.0,0
mp-754250,NaLuO2,4.0962,0
mp-4088,La(FeSi)2,0.0,0
mp-9768,BaSb2Pd,0.0,0
mp-39626,SrLaMnWO6,2.0287999999999995,0
mp-850876,VOF3,2.9217,0
mp-1042702,Sr2YCu2NiO7,0.0,0
mp-28147,Er4Ni13C4,0.0,0
mp-541431,Ca2SiH2O5,4.6543,0
mp-768345,Ba2B2O5,3.8444000000000003,0
mp-771772,Lu4(B2O5)3,5.8261,0
mp-685291,AlPO4,1.4649,0
mp-554279,Tl3Hg2S3ClO12,2.7432,0
mp-20388,Pr3PbC,0.0,0
mp-662523,SrTeO3,3.1740000000000004,0
mp-976061,PrGe3,0.0,0
mp-74,Rh,0.0,0
mp-755071,SnO2,1.2960999999999996,0
mp-1028505,Te2Mo3WSe6,0.0,0
mp-859127,GaHO2,2.8219,0
mp-510062,CsSmCdSe3,2.0217,0
mp-752798,CeTh2O6,1.8350999999999997,0
mp-2812,HoFe5,0.0,0
mp-1029246,MoW3S8,1.2245,0
mp-559608,K3NdSi7O17,4.713500000000001,0
mp-28299,USe2O7,2.1387,0
mp-999059,Ti2GaFe,0.0,0
mp-559459,CsInS2,2.1704,0
mp-706449,P2H6N2O5,0.5178,0
mp-569281,HoB4,0.0,0
mp-631504,BaSiTc2,0.0,0
mp-20782,LiInTe2,1.3847,0
mp-1041319,BaTiZnF7,0.23309999999999986,0
mp-1005693,Sm2InHg,0.0,0
mp-620032,Ti2Se,0.0,0
mp-27527,Te2AuI,0.0,0
mp-1048022,W4O9,0.0,0
mp-999437,Nb3Ni,0.0,0
mp-720703,NaUHOF5,0.0,0
mp-568940,Y(NiP)2,0.0,0
mp-19337,Ba3CoSb2O9,1.8777,0
mp-677105,Cu2GeSe3,0.0,0
mp-1027931,Te6Mo3WS2,0.0,0
mp-2322,YAl2,0.0,0
mp-625871,Sr(H2O3)2,0.5135,0
mp-22886,UBi,0.0,0
mp-1043991,LaMgTaFeO6,2.8630000000000004,0
mp-569650,Ho(GeRh)2,0.0,0
mp-2192,BPt,0.0,0
mp-22472,Ba3CuRu2O9,0.0,0
mp-13995,Hg2GeO4,1.1683999999999999,0
mp-570105,K2PtC4(IN2)2,1.3471,0
mp-569338,YbAlPd,0.0,0
mp-765055,Li2Mn2F7,0.12080000000000002,0
mp-284,AlCo,0.0,0
mp-22217,CePd5,0.0,0
mp-1043355,CaV(GeO3)2,0.38070000000000004,0
mp-613910,BaNiF6,0.4727,0
mp-27782,XeIF7,3.0663,0
mp-867178,PrMgCd2,0.0,0
mp-631491,BaNbTc2,0.0,0
mp-775829,Ti2N2O,1.0598999999999998,0
mp-776009,Ti3CoCu2(PO4)6,0.0,0
mp-677372,Ti10Bi(Pb3O10)3,0.0,0
mp-19295,LuVO4,2.6045999999999996,0
mp-23497,Li2ZnI4,3.1982,0
mp-30058,TlSbO3,2.4341,0
mp-1045839,CaCr(PO3)4,2.209,0
mp-764457,Na3FeO4,0.3168000000000002,0
mp-19747,Ni3(PbSe)2,0.0,0
mp-20247,Dy(Fe2Ge)2,0.0,0
mp-764817,Li2Mg11(WO4)12,3.4156,0
mp-505249,Th(NiP)2,0.0,0
mp-780154,Li4FeO3F,2.7852,0
mp-22044,Sm2Ge2Ru,0.0,0
mp-782635,Fe3(O2F)2,0.0,0
mp-760382,ThUO4,0.0,0
mp-18093,Al2Mo3C,0.0,0
mp-861440,RbCaCO3F,4.2981,0
mp-542634,Ta2Te3,0.0,0
mp-752424,Ba4Br6O,3.6339,0
mp-9805,KYb(CO3)2,0.0,0
mp-764547,LiFe2(BO3)2,1.6316,0
mp-1027608,Mo2SeS3,0.5037000000000003,0
mp-1018100,AlSb,0.9179000000000004,0
mp-23685,CaH2(CO2)2,4.6455,0
mp-19824,Ca(MnGe)2,0.0,0
mp-568284,SrI2,3.8019999999999996,0
mp-677550,Ca5Al12Si12(AgO24)2,2.194,0
mp-755255,Cu3OF5,0.0,0
mp-755617,NaHoO2,4.0047999999999995,0
mp-561118,ZnS,2.0338,0
mp-707540,ZrP2(HO4)2,4.3746,0
mp-10495,NdCuS2,1.0786999999999995,0
mp-5091,Dy(Al2Fe)4,0.0,0
mp-1232,Mo3Pt,0.0,0
mp-773505,Al2CrO5,0.7300000000000004,0
mp-1863,SiAs,1.4518999999999997,0
mp-29723,LaB2Ru3,0.0,0
mp-504787,NpF4,0.0,0
mp-709021,CaTi2(HO3)2,3.0705999999999998,0
mp-2108,Ti5Si3,0.0,0
mp-9938,Hf2Si,0.0,0
mp-1045778,YV4(CuO4)3,0.0,0
mp-568588,NdTlSe2,1.9676000000000005,0
mp-582080,Cs3LaCl6,4.5827,0
mp-5901,CeMnSi2,0.0,0
mp-2417,DyIr3,0.0,0
mp-10047,Ca5As3,0.0,0
mp-560607,Sb2O3,1.2201999999999993,0
mp-542637,K2B2Se7,1.6237000000000001,0
mp-570165,CdI2,2.3729,0
mp-760814,LiCuF3,0.0,0
mp-763905,Co6O5F7,0.0,0
mp-19933,PuSb,0.0,0
mp-1042875,MnAs2O7,0.5503,0
mp-554732,RbSbS(O2F)2,4.6867,0
mp-559902,TeC4(BrF3)2,2.5884,0
mp-5396,MnCo2Sb,0.0,0
mp-18111,Ba2LaC3O9F,3.9314,0
mp-975644,BeF2,0.0,0
mp-662919,SbTe(SeF3)2,1.3668,0
mp-694911,BaCaBO3F,3.8701,0
mp-973155,Ge3C,0.0,0
mp-1033587,RbMg6BO8,0.0,0
mp-19247,ScVO4,2.6445000000000003,0
mp-15503,Ba4TiAs4,1.036,0
mp-18582,Rb2Ti(Si2O5)3,3.4852999999999996,0
mp-655547,Pb2O3,0.0,0
mp-559251,K3Cr2(PS4)3,1.2898,0
mp-12101,Lu(SiOs)2,0.0,0
mp-8056,Ca(BO2)2,6.020300000000001,0
mp-780132,NaCr6O11,0.0,0
mp-554121,NaHf2VF11,3.1712000000000002,0
mp-8901,Rb2VAgS4,1.3325,0
mp-1018757,LaZnGa,0.0,0
mp-975614,Nd3AlNiS7,0.09640000000000004,0
mp-27349,BSF7,4.9968,0
mp-13572,ScSiPt2,0.0,0
mp-3092,DyB2Ru3,0.0,0
mp-30054,CS2N,2.982,0
mp-768972,Ba3Y2Cl12,4.5853,0
mp-867214,Er2IrRu,0.0,0
mp-1001605,PrBi,0.0,0
mp-19350,LaVO3,0.9979999999999993,0
mp-653602,Os3C8SO8,1.4818,0
mp-10455,YTiGe,0.0,0
mp-554778,NaY(SiO3)2,4.8028,0
mp-560088,Cs2Li3F5,5.618399999999999,0
mp-1047895,Mo4O9,0.0,0
mp-560622,CaLa2B10O19,4.5432999999999995,0
mp-1018770,Li3PrBi2,0.0,0
mp-19159,Ca2PdWO6,0.0,0
mp-640925,CuHgC4(SN)4,0.3338,0
mp-11484,ZrIr,0.0,0
mp-29428,Ta(TeCl3)2,1.1619,0
mp-758179,LiCu2PO4,0.5,0
mp-759117,Li2SbP3O10,3.8109,0
mp-1045642,Ca2Ti9O13,0.0,0
mp-567957,Sm4MgRh,0.0,0
mp-17153,Ba(TbTe2)2,0.7858999999999998,0
mp-634429,H4N2O3,3.1066000000000003,0
mp-12118,InCu2,0.0,0
mp-979263,ThMg3,0.0,0
mp-697068,SiPd2,0.0,0
mp-613384,CsIO3,0.0,0
mp-761704,Bi4O5F2,2.5409999999999995,0
mp-974060,LiDy3,0.0,0
mp-34611,ZnAgAs,0.0,0
mp-921,YRh2,0.0,0
mp-1026981,Te3MoWS,0.012099999999999778,0
mp-1020609,Zn2SiO4,2.5427999999999997,0
mp-865956,IrCl3,0.7277,0
mp-592,TiRu,0.0,0
mp-685446,BaNb8O14,0.30489999999999995,0
mp-1046454,SrCo(PO4)2,0.017299999999999982,0
mp-1042052,CaP2WO7,1.4447,0
mp-865848,LuInAg2,0.0,0
mp-582259,Li7VN4,2.1867,0
mp-1044787,PrZn(NiO3)2,0.0,0
mp-557769,CaH2C2O5,3.5377,0
mp-30962,K4Ge9O20,3.0665,0
mp-772160,SrLaI5,2.1847,0
mp-865465,VCo2Ge,0.0,0
mp-13026,YbZnPt,0.0,0
mp-1009494,NpN,0.0,0
mp-777682,Li2NbV3O8,1.4940000000000002,0
mp-541071,KZrP2HO8,4.1955,0
mp-1046472,SrP2WO8,3.1449000000000003,0
mp-542130,RbAlBP2HO9,5.2635,0
mp-862746,Sr2LiTl,0.0,0
mp-707068,KH8O4F,5.1545000000000005,0
mp-626855,Fe4H14O13,1.8694000000000002,0
mp-1009460,Hf,0.0,0
mp-23494,Ti(Bi3O5)4,2.3129999999999997,0
mp-556382,EuClF,0.8959000000000001,0
mp-2263,ScIr2,0.0,0
mp-812,Ho2O3,3.9457999999999998,0
mp-1041195,CaHoCr2O6,0.6022000000000003,0
mp-22282,LaIn2,0.0,0
mp-608014,K2Ge2Pb2O7,3.1648,0
mp-556744,TlInSiS4,2.4359,0
mp-10873,ScAlAu2,0.0,0
mp-18048,LiZnAsO4,2.9218,0
mp-16860,Mg13Ir3,0.0,0
mp-6362,Sr2TbIrO6,0.0,0
mp-849517,Mn6O5F7,0.472,0
mp-625868,H7NO6,3.45,0
mp-1019896,La5S4NO2,1.4327000000000005,0
mp-13696,EuCuO2,0.0,0
mp-16456,BaNd2MnS5,0.0,0
mp-989558,Cs2TlGaF6,4.766,0
mp-558235,CaTaF7,5.065200000000001,0
mp-2377,GaMo3,0.0,0
mp-11387,HfGa3,0.0,0
mp-648164,Mn2Hg(CO)10,2.811,0
mp-676893,Ca4ThF12,5.5383,0
mp-558114,Sr4NbAlO8,2.9538,0
mp-30060,Sn5(BRh3)2,0.0,0
mp-30873,Th5Sn3,0.0,0
mp-971678,Na3Ni2SbO6,2.3299,0
mp-17978,Rb5GeP3,0.46140000000000003,0
mp-17815,Ba4Si20Au3,0.0,0
mp-2070,CoS2,0.0,0
mp-770744,Li4Nb2Fe3Sn3O16,1.5534,0
mp-21030,Ti3Sn,0.0,0
mp-1047240,MgAsWO5,2.0008,0
mp-675460,LiTiCl3,0.0,0
mp-11437,Er3Rh,0.0,0
mp-32578,Ce2Se3,0.0,0
mp-30622,Dy5Ru2,0.0,0
mp-1003771,MgMn6O12,0.34750000000000014,0
mp-7372,ZnAs,0.30589999999999984,0
mp-9956,AlCr2C,0.0,0
mp-1043955,LaFeReO6,0.0,0
mp-2985,HoB2Ru3,0.0,0
mp-1778,BeO,6.8508,0
mp-29771,MgC2,2.562,0
mp-637,YB4,0.0,0
mp-6959,Ga2NiS4,0.0,0
mp-631303,InReGe,0.0,0
mp-1009649,PrN,0.00790000000000024,0
mp-21402,PrCr2Si2C,0.0,0
mp-27500,NaSO2,2.3189,0
mp-70,Rb,0.0,0
mp-772918,Sr3TeO6,2.5037,0
mp-5365,DyCuSi,0.0,0
mp-972631,Zr2Co12P7,0.0,0
mp-977537,ZrCdRh2,0.0,0
mp-11328,P2W,0.0,0
mp-15619,GaAs,0.0,0
mp-30359,TmAg2,0.0,0
mp-767114,SnP4O11,4.4386,0
mp-11706,Ho2HgO4,2.0919,0
mp-30472,Ca2GaCu2,0.0,0
mp-978515,SmYAl2,0.0,0
mp-12205,Ti4O7,0.0,0
mp-2694,LaAl2,0.0,0
mp-43068,Na3Al3Si3AgBrO12,3.3352999999999997,0
mp-13305,SmSnAu,0.09699999999999953,0
mp-4223,Na3PO4,4.1727,0
mp-720380,CuP2(HO3)2,0.0,0
mp-28483,WBr6,1.0697999999999999,0
mp-11321,Y3TaO7,3.5002,0
mp-504806,K2Li14Pb3O14,1.9157000000000002,0
mp-770155,Li3V3(BO5)2,1.2932000000000001,0
mp-505626,Cr12P7,0.0,0
mp-997047,AgBrO2,0.0,0
mp-976223,K3Sr,0.0,0
mp-610631,LaGeAu,0.0,0
mp-862940,Er2CuPt,0.0,0
mp-570050,Yb2Sn,0.0,0
mp-559209,NaCuAsO4,0.0,0
mp-976262,LiMg,0.0,0
mp-771771,Ta2PbO6,3.5547,0
mp-27577,Cd2As3I,0.7611999999999997,0
mp-21660,HfGa2Co,0.0,0
mp-1044309,MgTiV(PO4)3,1.4562,0
mp-9580,TlGaSe2,0.5609999999999999,0
mp-652220,PBr2N,3.1124,0
mp-27280,Na2MnCl4,2.0864000000000003,0
mp-755251,Gd2HfO5,3.2044000000000006,0
mp-769620,Li2VCrO4,1.9324999999999997,0
mp-776261,Na5Sn2P(CO4)4,0.2669999999999999,0
mp-770931,CuTeO4,0.3853,0
mp-13976,Yb2SeO2,0.0,0
mp-1047462,Zn(NiO2)2,0.14170000000000016,0
mp-756519,Li(ReO3)4,0.0,0
mp-1042094,ZnP2WO7,1.4878999999999998,0
mp-21028,Er3TlC,0.0,0
mp-761891,Li3Ti4O8,0.0,0
mp-29135,Zr6CoAs2,0.0,0
mp-744019,CrH9(CN2)3,0.0,0
mp-5069,La(MnSi)2,0.0,0
mp-757205,Y2Th5O13,2.7174,0
mp-11294,DyCd2,0.0,0
mp-652695,Re(SeCl6)2,0.8807999999999999,0
mp-1028689,Te4MoW3(SeS)2,0.0,0
mp-554856,Na2Si2O5,4.4186,0
mp-27974,PuBr3,0.0,0
mp-21321,MnSe2,0.0,0
mp-867356,TcRu3,0.0,0
mp-763201,V6O7F5,0.0,0
mp-4802,La4Re6O19,0.0,0
mp-7487,BaO,2.7670000000000003,0
mp-625614,H9BrO4,3.9354,0
mp-675711,Li(Mo3S4)2,0.0,0
mp-23710,MgH2,3.7097,0
mp-17380,Ba2Ca(PdO2)3,1.2944000000000004,0
mp-10149,InSb,0.0,0
mp-1023329,CaMg6Zr,0.0,0
mp-1047659,MgMn2O4,0.0,0
mp-569501,LiCaBi,0.5790000000000002,0
mp-1047361,Ba2YTi3O8,0.0,0
mp-758942,NaYH8(CO3)4,3.4281,0
mp-23263,LaBr3,2.9248000000000003,0
mp-781012,Na4Fe6O13,0.0,0
mp-998612,KGeBr3,2.9025999999999996,0
mp-1041302,BaZnCuF7,0.5794999999999999,0
mp-26223,Li4Cu(PO4)2,0.03980000000000006,0
mp-1030319,Te2Mo,0.5861999999999998,0
mp-23250,UCl6,1.5939,0
mp-978790,Sm3Ag,0.0,0
mp-29626,Na4Sn3S8,1.6505999999999998,0
mp-30385,Ho2Au,0.0,0
mp-1018161,CrNiSb,0.0,0
mp-722766,CaHgH16(BrO2)4,2.8966000000000003,0
mp-752891,LiTi3O6,0.0,0
mp-4207,USb2Pd,0.0,0
mp-27862,UTa2O8,1.2312000000000003,0
mp-720897,ZnB8(H2N)4,0.0,0
mp-11269,BaSn3Pd,0.0,0
mp-760103,Sr15Pd5O24,0.6658999999999997,0
mp-998429,NiAgF3,1.8226999999999998,0
mp-720254,Li2H4(SO4)3,5.8773,0
mp-634418,NaCaSiHO4,4.4923,0
mp-559224,Sr3Al2Cl2O5,4.2155,0
mp-7916,HfSiS,0.0,0
mp-1043946,MgFe3(P2O7)2,3.2309,0
mp-795,LiSi,0.0,0
mp-570632,ScBi,0.0,0
mp-978881,SnAs3,0.0,0
mp-757636,NbTlO3,0.7458,0
mp-12974,Pr2CdPd2,0.0,0
mp-1275,SiMo3,0.0,0
mp-561380,Ag2Te4O11,1.1402,0
mp-774393,Li2MnFe(BO3)2,2.7044000000000006,0
mp-1781,NdRu2,0.0,0
mp-20160,Mn2GaCo,0.0,0
mp-21779,CaCuGe,0.0,0
mp-866308,CaB2(H7N)2,5.694699999999999,0
mp-7331,Cs2MgFe(CN)6,4.1775,0
mp-28895,Ba(P2Pd)2,0.0,0
mp-1498,Al21Pd8,0.0,0
mp-867835,BeSiRu2,0.0,0
mp-559703,BaLa2Te5O14,3.2283,0
mp-13775,Gd2Si2O7,3.2104,0
mp-754632,Pr(ReO4)2,0.0,0
mp-13334,ZnSnO3,1.0766999999999998,0
mp-864981,Dy2AgIr,0.0,0
mp-1007760,Ge,0.0,0
mp-604537,MnGaNi2,0.0,0
mp-570058,Eu(GeIr)2,0.0,0
mp-30967,Tb12Co7,0.0,0
mp-504928,NaCu3Te2,0.0,0
mp-20626,DyTiGe,0.0,0
mp-19405,Ni(AgO)2,0.0,0
mp-684066,Li2Ti(PO3)5,0.2219000000000002,0
mp-755781,TbNbO4,3.9277,0
mp-2721,Ce2O3,0.0,0
mp-866661,K3Dy(AsS4)2,1.6543,0
mp-977399,LiMgPd2,0.0,0
mp-4362,Cu2Ag2O3,0.0,0
mp-27653,LiAlH4,4.729,0
mp-6553,LiSc(SiO3)2,4.9196,0
mp-1608,ZrHg3,0.0,0
mp-20351,InP,0.4679000000000002,0
mp-19365,Ba3V2O8,3.7426999999999997,0
mp-13314,ScTlTe2,0.058100000000000485,0
mp-20735,Ce3Sn,0.0,0
mp-865210,TmLuMg2,0.0,0
mp-1041231,Sn3P3O13,0.0,0
mp-30455,HoBiPt,0.0,0
mp-555699,BaLa(BiS3)2,0.6691000000000003,0
mp-755487,Li2BiO3,0.0,0
mp-532789,Li6Nd6Sb(TeO8)3,0.0,0
mp-7995,Mg2BO3F,4.4508,0
mp-28037,Mo2SBr2,0.9874999999999998,0
mp-7024,Tb2C3,0.0,0
mp-571132,LiMg10AlH24,3.5822,0
mp-624000,Re(Te4Cl3)2,0.21110000000000007,0
mp-30363,BaAu2,0.0,0
mp-12160,Li6Ho(BO3)3,4.7449,0
mp-1804,Fe3N,0.0,0
mp-861494,V3CoO8,1.4267,0
mp-567505,SiC,1.7772000000000006,0
mp-38637,Rb(WO3)6,0.0,0
mp-570593,RbAg2(AsSe2)3,1.1615,0
mp-690012,CrPO4,1.6234,0
mp-555410,ZnS,2.0646000000000004,0
mp-779084,LiCr(PO3)3,3.1423000000000005,0
mp-695995,ReSbH4O7,2.834,0
mp-978853,Sr(GeIr)2,0.0,0
mp-2749,TiBe2,0.0,0
mp-557180,CaAs2(XeF5)4,2.5746999999999995,0
mp-777277,Li2Cr3CuO8,0.5247999999999999,0
mp-756751,Tm2Nb2O7,0.0,0
mp-1044790,MgSb2P2O9,2.1411999999999995,0
mp-978662,Sc6Al16Ir7,0.0,0
mp-11256,ScAu,0.0,0
mp-1023933,WSe2,1.5241,0
mp-775763,AlBiO3,3.0461,0
mp-13984,CdPdF6,1.7751000000000001,0
mp-5239,NdSiRu,0.0,0
mp-18206,Co2As,0.0,0
mp-971820,ZnH,0.0,0
mp-9793,Ba3BAsO3,1.5213999999999999,0
mp-1028683,TeW2Se2S,0.0,0
mp-674499,Nb17Ir3S40,0.0,0
mp-1027061,Te2MoW3(Se2S)2,0.0,0
mp-559019,Nd6S4BrN3,1.2748999999999997,0
mp-764280,Li2MnF4,4.013199999999999,0
mp-26762,Sn(PO3)3,0.0,0
mp-2096,YbMg2,0.0,0
mp-36819,Sr(CeSe2)2,0.0,0
mp-569157,BiI3,2.4854,0
mp-600347,H2Os3(CO)10,1.7320000000000002,0
mp-770536,Li2VH2OF5,2.5167,0
mp-1029069,MoW(SeS)2,0.5893999999999999,0
mp-8610,Li8PtO6,2.1611,0
mp-779348,Ta2CrNO5,1.2699000000000003,0
mp-580113,Dy(Zn10Ru)2,0.0,0
mp-16585,HgB4O7,2.5834,0
mp-557918,KGaAs2O7,2.6826,0
mp-569580,NaLa4I7N2,2.8337999999999997,0
mp-29074,Te7As2F12,0.9303999999999999,0
mp-2597,InTe,0.0,0
mp-760080,CeTh9O20,1.9639999999999995,0
mp-759602,Sb4O5F2,2.8185,0
mp-13961,NdAs2,0.0376000000000003,0
mp-1046956,BaZn(BiO2)4,0.5423,0
mp-1018782,Li3YBi2,0.0,0
mp-976122,Ge3Sb,0.0,0
mp-7469,NaCuO,1.2722000000000002,0
mp-20524,Sc2VB2Ir5,0.0,0
mp-555223,Cs2MnF5,1.3949,0
mp-570583,P4N3Cl11,2.4877,0
mp-19790,Rh(OF3)2,0.0,0
mp-774714,Li3Sb(PO4)2,3.1538999999999997,0
mp-1726,KO3,0.6216999999999999,0
mp-675577,Mn(InTe2)2,0.04090000000000016,0
mp-568273,LiI,4.222,0
mp-976128,Hf5Sc,0.0,0
mp-9722,Na2LiGaAs2,0.6841999999999997,0
mp-18640,LiTi2(PO4)3,2.4404,0
mp-768864,KNdO2,3.8044,0
mp-308,U3O8,0.0,0
mp-709068,H21OsC9NO7,2.2033,0
mp-568985,La2B3Br,0.0,0
mp-978828,Sm3Zn,0.0,0
mp-776589,Li9Sb3P8O29,3.8270000000000004,0
mp-33107,SF4,1.5276,0
mp-27184,B10(Pb2O7)3,3.259,0