mp_id,formula,band_gap,fidelity
mp-22502,Mn3IrN,0.0,0
mp-1046089,Mg2Ta2CrO8,1.5343999999999998,0
mp-12384,NaEr(PS3)2,2.5368999999999997,0
mp-29772,YGe3,0.0,0
mp-690578,Nb2SiTe4,0.0,0
mp-705555,Fe10O11,1.4182999999999995,0
mp-983598,Ca2AgBi,0.055600000000000094,0
mp-568761,AgTe,0.24110000000000031,0
mp-1042831,MgTi(GeO3)2,1.8319999999999999,0
mp-768979,Ba3Y2Cl12,4.3262,0
mp-771902,Li4Ti3Cr2Fe3O16,0.0,0
mp-705009,K3VC5N5O,2.8885,0
mp-989621,LaOsN3,0.0,0
mp-989189,SbBrO,1.6027000000000005,0
mp-721583,CdH2SeO5,2.5048,0
mp-553898,GePbO3,2.6724,0
mp-31081,Sc(MnAl2)4,0.0,0
mp-558130,MnBiS2Cl,0.8539999999999992,0
mp-23276,InCl,2.1862,0
mp-1044206,V3Zn(P2O7)2,0.45389999999999997,0
mp-1047809,ZnFe3P3O13,1.9318999999999997,0
mp-6077,Ba3SmRu2O9,0.0,0
mp-560174,NaZn(PO3)3,4.8259,0
mp-1509,Sn2S3,0.7755000000000001,0
mp-13430,Nd2AlCo2,0.0,0
mp-1046563,Te3Mo5O18,1.5547999999999997,0
mp-1009207,MnSb,0.0,0
mp-978928,SnCl,0.0,0
mp-16984,Sr3MgRhO6,0.0,0
mp-1025941,Mo2W(SeS2)2,0.6491000000000002,0
mp-698454,DyH9C5(NO4)2,4.5207,0
mp-721017,Na2Te(H5O4)2,4.5416,0
mp-1016152,NaMnO2,1.6496,0
mp-11566,ScZn,0.0,0
mp-1018779,Li3PrSb2,0.0,0
mp-769481,Y4Ga2O9,3.54,0
mp-570882,CdI2,2.3695000000000004,0
mp-541474,Pt(OF3)2,0.0242,0
mp-20387,EuSn3,0.0,0
mp-19946,YInCu2,0.0,0
mp-12704,TbGaPd,0.0,0
mp-676320,In4(SnO4)3,0.8894000000000002,0
mp-674332,U17O31,0.0,0
mp-867373,Ti2Co12P7,0.0,0
mp-975421,RbAgO3,0.0,0
mp-224,WS2,1.597,0
mp-561150,Yb(ClO4)3,0.0,0
mp-676232,KH5O3,4.3271,0
mp-1627,Mo2S3,0.0,0
mp-977404,Nd2AgIr,0.0,0
mp-30179,Mn6Al31Ni2,0.0,0
mp-1042950,CaTi(GeO3)2,1.5545999999999998,0
mp-998743,TlGeCl3,3.3207,0
mp-771095,Mn3Cr3(SnO8)2,0.8395000000000001,0
mp-1046939,BaTl(WO3)2,0.0,0
mp-20786,Dy3In,0.0,0
mp-28888,Cu(PtS2)2,0.13930000000000042,0
mp-754598,Hg3SeO6,0.4373,0
mp-569203,Tl3Bi2I9,2.3647,0
mp-20787,FeB,0.0,0
mp-9387,TbCuGe,0.0,0
mp-1041792,YFe3F15,0.0,0
mp-752922,Li8HfO6,5.3818,0
mp-23705,Na3AlH6,2.8136,0
mp-689684,P2O5,1.1180999999999999,0
mp-758289,Th4Ta18O53,1.6168,0
mp-1019800,K8N3O,0.0,0
mp-4499,MgAlSi,0.0,0
mp-23040,Ca2PI,1.7000000000000002,0
mp-754640,Ce2SeO2,0.0,0
mp-759897,Cu2OF2,0.0,0
mp-758784,YZr4O9,0.07570000000000032,0
mp-677242,K2SO4,4.9029,0
mp-862840,Pr11In9Ni4,0.0,0
mp-864744,HoMgRh2,0.0,0
mp-770420,Li4Ti3Mn3V2O16,0.0,0
mp-13478,SmCoSi2,0.0,0
mp-1028873,TeMoWSe2S,0.0,0
mp-555871,Na2CuSbS3,1.2330999999999999,0
mp-28541,Bi2P4O13,4.5172,0
mp-756897,DyTe3O8,0.0,0
mp-778884,LiFeBO3,2.6202000000000005,0
mp-559836,H9C3S2BrN2,3.3436999999999997,0
mp-29796,Ho(AlCl4)3,4.31,0
mp-1016200,MgGeAs2,0.5541,0
mp-19453,Te2MoO7,2.8149999999999995,0
mp-9068,K2NaAlP2,1.4918,0
mp-973466,In3As,0.0,0
mp-676072,Ce2PbSe4,0.0,0
mp-22108,HoTiGe,0.0,0
mp-557874,KAg(PO3)2,2.9041,0
mp-19856,SnPt,0.0,0
mp-865091,HfMnRh2,0.0,0
mp-780412,Na6Bi2B4AsO16,0.0,0
mp-16363,CoAsS,0.8512000000000004,0
mp-542943,CdHgC4(SeN)4,2.2447999999999997,0
mp-755609,Y2SeO2,2.0962,0
mp-14445,Ca(BIr)2,0.0,0
mp-11486,Y2(Al3Co)3,0.0,0
mp-1043149,MgCo(GeO3)2,1.7168,0
mp-648072,NaPO3,4.7362,0
mp-28168,Th6CBr14,0.6522000000000001,0
mp-7931,SrP,0.45940000000000003,0
mp-567852,SmCo9Si4,0.0,0
mp-561685,CsYbCoS3,0.0,0
mp-27552,TlPbI3,2.1427000000000005,0
mp-1029420,RbCoN,0.0,0
mp-553945,SiO2,5.6009,0
mp-557565,KC(NO2)3,2.1521,0
mp-31604,Li2CoP2O7,3.1026,0
mp-2370,PrNi5,0.0,0
mp-775278,Li2MnV3O8,1.3458,0
mp-683980,Ho(IO3)3,3.3100000000000005,0
mp-24124,NdH2ClO2,4.8667,0
mp-774318,Li10Fe3Co3(NiO8)2,0.7782999999999998,0
mp-1004376,NaMn2O4,0.5139999999999998,0
mp-570536,Rb2AgAu3I8,0.756,0
mp-680047,CdI2,2.3387000000000002,0
mp-755757,Li2Sn(BO3)2,2.3637,0
mp-674412,Ce8U2O21,0.0,0
mp-867137,ScVRu2,0.0,0
mp-29722,Ca11InSb9,0.8375000000000004,0
mp-707836,Na3H6Ir,3.3028000000000004,0
mp-1027408,Te6Mo3WS2,0.06469999999999976,0
mp-27938,Tl6SI4,1.7794000000000003,0
mp-755448,Rb2SnO3,2.0715999999999997,0
mp-973612,Hf9CoMo4,0.0,0
mp-571210,YGaI,0.0,0
mp-554134,SnS,1.6680000000000001,0
mp-568537,YbInAu2,0.0,0
mp-1046785,Zn(Cu2O3)2,0.0,0
mp-505713,CsTmZnSe3,2.1715999999999998,0
mp-4793,U(SiPd)2,0.0,0
mp-772080,BaLaI5,2.5826000000000002,0
mp-1041529,CaSi2SnO6,3.3719,0
mp-1045532,MgV2O4,1.1545999999999994,0
mp-675797,Zn7(SbO6)2,0.6033,0
mp-7806,Cr3P,0.0,0
mp-972204,V2MoRu,0.0,0
mp-600171,ZnH8C4(N4Cl)2,4.4569,0
mp-1029281,Te3MoWSe,0.32889999999999997,0
mp-6952,RbYbF3,6.5181000000000004,0
mp-746791,FeH10S2NO11,0.04289999999999994,0
mp-772769,Na2Ge2O5,3.1185,0
mp-974395,Pt3Rh,0.0,0
mp-102,Co,0.0,0
mp-555342,Na2CaSiO4,3.3360999999999996,0
mp-1044762,PrV2ZnO6,1.0704000000000002,0
mp-548469,BaZnSO,2.2347,0
mp-569532,TiCu2P,0.0,0
mp-30778,Mg5Rh2,0.0,0
mp-755959,NaLiO,1.5957,0
mp-779428,Sr4HfO6,3.7468000000000004,0
mp-558133,Rb2MnF6,3.2312999999999996,0
mp-542463,Mg(AlCl4)2,5.1636,0
mp-22465,Mn2CoSn,0.0,0
mp-1046867,Mg(SnO2)2,0.0,0
mp-707534,Mg16Si7HO32,0.0,0
mp-1048444,Ba2TlMo2O7,0.0,0
mp-989403,LaVN3,0.5716999999999999,0
mp-39540,CrSiH12(OF)6,0.0,0
mp-766971,Li4CrS4,0.45889999999999986,0
mp-28728,K6Sn3As5,0.6389999999999998,0
mp-672273,AlBiCl6,3.7506000000000004,0
mp-571230,Dy4InRh,0.0,0
mp-864674,Ho2AlZn,0.0,0
mp-28734,Zr6CoCl15,1.0914000000000001,0
mp-11498,MgTl,0.0,0
mp-561886,CsNd(PO3)4,5.493200000000001,0
mp-1078,CaCd2,0.0,0
mp-15316,SrMgF4,6.2322999999999995,0
mp-11,As,0.0,0
mp-16482,TiAlAu2,0.0,0
mp-30471,CaCu,0.0,0
mp-27145,Ca5Bi3,0.0,0
mp-16451,BaPr2CoS5,0.0,0
mp-1033747,Mg14BiBO16,0.7358000000000002,0
mp-1044617,SbPO4,1.1438000000000001,0
mp-570666,Mo3Pt2N,0.0,0
mp-11578,VZn3,0.0,0
mp-29092,Ba3(GeN)2,0.0,0
mp-1029743,BaGeN2,2.4829,0
mp-572537,K4CO4,2.9688,0
mp-763331,LiMn2F5,3.0768,0
mp-19169,PrVO4,3.0298999999999996,0
mp-974426,Re3Sn,0.0,0
mp-770574,La2MgI8,2.1115000000000004,0
mp-779065,Li2Mn2CoO6,0.5897000000000001,0
mp-680579,ZnC2(SN)2,3.7233,0
mp-505343,U(CoB)4,0.0,0
mp-23057,CsLiBr2,4.1375,0
mp-756473,WSCl4,1.9545,0
mp-780060,Hf2N2O,2.0671,0
mp-1013705,Sr3BiAs,0.0,0
mp-754040,CeSmO2,0.0,0
mp-976422,Hf3C,0.0,0
mp-626564,Ca(H8O5)2,3.7376,0
mp-560320,KBa2(PO3)5,5.1425,0
mp-35841,Li2CuGe,0.0,0
mp-722686,SiH10C2N4(OF3)2,5.5053,0
mp-19294,LiFeP2O7,2.5994,0
mp-684000,Eu2Si3Ni8,0.0,0
mp-20756,LaTiGe,0.0,0
mp-558259,Pr3Si2S8I,2.5743,0
mp-697819,Fe2P3O13,0.018500000000000072,0
mp-662566,Ca4Al6SO16,4.4663,0
mp-22903,RbI,3.777,0
mp-706869,La2ThTa(ClO2)3,4.145300000000001,0
mp-14796,KPt2Se3,0.9428000000000001,0
mp-1934,LiZn,0.0,0
mp-864918,NpN2,0.0,0
mp-571271,TmPt2,0.0,0
mp-774171,Li3Mn2(SiO4)2,0.0,0
mp-20054,TbGe2Pt,0.0,0
mp-770625,Li4Al3Cr3(SbO8)2,2.5052000000000003,0
mp-23884,SrGe(HO2)2,4.1282000000000005,0
mp-754226,YLuO3,3.3369,0
mp-22983,LiAlCl4,5.5616,0
mp-23217,Bi2Rh,0.0,0
mp-643439,BaMg2H8Os,2.1357,0
mp-973217,SbSI,1.5051,0
mp-769514,Li9Mn12Cu3O32,0.0,0
mp-773087,Li2MgCu2(SiO3)4,0.4535,0
mp-705040,Bi2W3(CO)15,2.0048,0
mp-27298,Ca11Bi10,0.0,0
mp-762679,V(TeO3)4,1.0232,0
mp-1046871,Zn(SbO2)2,0.03880000000000017,0
mp-766823,Li7Ti11O24,0.0,0
mp-697181,CsLi2(HO)3,4.1415,0
mp-689973,Li2Fe(PO4)2,0.0,0
mp-997082,BiAuO2,1.0724999999999998,0
mp-695452,K2Al11Si13(Ag3O16)3,1.2822,0
mp-867144,CaMgHg2,0.0,0
mp-554899,CsAlF4,6.9718,0
mp-557397,K2MnF6,3.2698,0
mp-999136,TaInSe2,0.0,0
mp-573568,K2TcI6,0.20120000000000005,0
mp-972837,SiBi3,0.0,0
mp-632686,Mn5Ge2,0.0,0
mp-1019051,ReC2,0.0,0
mp-756318,Al2CoCl8,0.3186,0
mp-31173,CeCd2Ag,0.0,0
mp-1163,UBe13,0.0,0
mp-1018123,TiAu2,0.0,0
mp-555477,Ag2H3IO6,0.6966000000000001,0
mp-30062,Cs2PtBr6,1.433,0
mp-758428,Ti3NbO8,0.0,0
mp-1018697,EuCdSn,0.0,0
mp-720283,K2H6PtC4N4O3,1.8723,0
mp-556327,K2HgC2S2(BrN)2,2.3991,0
mp-996986,LiCuO2,0.15580000000000016,0
mp-777449,Li4V5SnO12,0.3014000000000001,0
mp-698358,NiH10C4(SN4)2,1.9155,0
mp-1047565,YBi3F15,0.9658,0
mp-13076,IrN2,0.0,0
mp-642273,U6Fe16Si7C,0.0,0
mp-7947,PtO,0.0,0
mp-780565,Na6Cu2C4SO16,0.0,0
mp-23489,CsIO4,2.5288,0
mp-540545,MnH8(BrO2)2,3.4753,0
mp-735521,MnH6(OF)3,1.5091999999999999,0
mp-17678,Sr(ScS2)2,1.3569999999999998,0
mp-27367,SeOF2,4.0832999999999995,0
mp-645902,Co3Ge(CO)10,1.9585,0
mp-10137,UB2Ru3,0.0,0
mp-1047570,Mg(SbO2)2,1.1304999999999996,0
mp-777531,Ti3Nb2Cr3O16,0.8117999999999999,0
mp-23882,Ca3Al2(HO)12,4.1187000000000005,0
mp-997046,AuClO2,0.8865000000000001,0
mp-540231,Li2FeP2O7,4.1959,0
mp-17516,Ca10P6SeO24,3.7474999999999996,0
mp-2940,LuPO4,5.9556000000000004,0
mp-1029421,Te2Mo(WSe2)3,0.0,0
mp-777151,LiFe2F7,3.6311,0
mp-580357,Cu3Pd,0.0,0
mp-864834,NpSnRh2,0.0,0
mp-30713,Ho2Zn17,0.0,0
mp-613839,Tb3(MnGe)4,0.0,0
mp-18700,K4SiO4,2.9391,0
mp-23583,Cs4BiSbCl12,0.5768,0
mp-554527,H12C4INO3,3.9587,0
mp-753712,YIO,3.4111000000000002,0
mp-2928,FePSe3,0.2601,0
mp-560559,TeC4(ClF3)2,3.0237,0
mp-27583,Sr2P6O17,5.326,0
mp-18838,K2MnSO4F3,1.5128,0
mp-570506,ZrI2,0.28580000000000005,0
mp-768041,Li4MnCr3(PO4)4,1.9097999999999997,0
mp-570962,SbI3(BrCl3)2,1.1091,0
mp-567623,Er2Fe14C,0.0,0
mp-557686,ZrVF6,2.4087,0
mp-624688,Ta2O5,2.4693000000000005,0
mp-23306,CuI,0.0,0
mp-866313,Ba3In(BO3)3,3.4878,0
mp-778086,Ba3Y2F12,6.4213000000000005,0
mp-557835,TlF,2.9859,0
mp-8546,SmB4,0.0,0
mp-24409,PH4I,3.6789,0
mp-561547,SrSiO3,4.6026,0
mp-19725,Hf(FeGe)6,0.0,0
mp-505618,Ba2CuWO6,0.0,0
mp-867263,ScCdHg2,0.0,0
mp-705675,Sr3Mn4O12,0.0,0
mp-989521,Cs2SCl6F,0.0,0
mp-569677,Sr2IN,1.7917000000000005,0
mp-29456,Rb2IN3,3.9553,0
mp-776760,Ti3FeSb2(PO4)6,0.0,0
mp-570651,Al17Mo4,0.0,0
mp-4991,Tb2Sn2O7,2.7218,0
mp-8939,Si2W,0.0343,0
mp-542099,Cs4PbO4,1.7688999999999997,0
mp-757816,LiNb(PO3)4,0.2860999999999998,0
mp-774794,Li5Sm3(SbO6)2,3.3604,0
mp-14653,AgSb2F12,0.5386999999999997,0
mp-754967,BaTeO4,2.1894,0
mp-18840,BaMnO3,0.8952999999999998,0
mp-650049,SbC(N3Cl2)3,1.8341,0
mp-707206,TeP6H30(NO4)6,3.6423,0
mp-754853,CaHfO3,4.4855,0
mp-697784,LiFe2(PO4)3,0.0,0
mp-623448,Nd3InN,0.0,0
mp-9516,Al2SiO5,5.4620999999999995,0
mp-3861,Al(MoS2)4,0.0,0
mp-11546,TiPd,0.0,0
mp-12777,AlCu3,0.0,0
mp-776740,Li2MnWO6,1.1686,0
mp-1008860,NbS2,0.0,0
mp-780489,Fe6O7F5,0.23629999999999995,0
mp-28084,Rb2PdBr6,0.619,0
mp-7853,NaTl3(SO3)2,2.8420999999999994,0
mp-2510,ZrHg,0.0,0
mp-720657,Na7Li4Yb5C12O37,0.0,0
mp-667471,KB5O8,4.1303,0
mp-581864,CsAsSe2,1.5081000000000002,0
mp-1041949,CaV2O4,0.0,0
mp-12743,CrTe4Au,0.0,0
mp-6706,TiTlPO5,2.6472999999999995,0
mp-10436,Tb(AlSi)2,0.0,0
mp-556282,Ba2AlInO5,2.0183,0
mp-20130,Pu3Al,0.0,0
mp-558323,SrBi2B2O7,2.804,0
mp-14206,K3Ag3As2,1.2540999999999998,0
mp-28103,USCl9,0.564,0
mp-1041727,Mg(BiO2)2,0.4626999999999999,0
mp-626620,RbHO,3.3341000000000003,0
mp-10450,PrAlGe,0.0,0
mp-780491,Fe4O3F5,0.9574000000000003,0
mp-779062,Li3V4(OF3)3,1.1482999999999999,0
mp-754610,Sr3CaI8,2.9311000000000003,0
mp-651741,Cs2Re2Se5,0.7001999999999997,0
mp-1028526,TeWS,0.0,0
mp-681,EuZn2,0.0,0
mp-1049234,Ba2YCr2F11,3.1167,0
mp-972185,Tl3Hg,0.0,0
mp-27639,IBr,1.4022999999999999,0
mp-1019968,LaZn(BO2)5,4.7136,0
mp-558219,SrLi(BS2)3,2.91,0
mp-780855,Fe4O7F,0.0,0
mp-767774,Mn2Fe3Cu(PO4)6,0.0,0
mp-861486,Li6V(OF)3,2.1071999999999997,0
mp-13218,YMg2Cu9,0.0,0
mp-626412,In(HO)3,2.7719000000000005,0
mp-2556,TlSn,0.0,0
mp-3822,SrCO3,4.425400000000001,0
mp-6764,BaSi2(NO)2,3.0104999999999995,0
mp-19797,YMnGe,0.0,0
mp-641651,U2(Al3Co)3,0.0,0
mp-683902,Rb3Nb2AsSe11,1.1729,0
mp-505508,V2Cu2O7,0.0,0
mp-779593,Na5LaO4,1.9400000000000002,0
mp-975564,PuBO3,0.0,0
mp-685353,Bi15PO25,2.3087,0
mp-3523,SrGd2O4,3.0100000000000002,0
mp-555489,LiY6B3O14,4.665100000000001,0
mp-643770,Rb2MgH4,3.8434,0
mp-559123,YSiNO2,4.0731,0
mp-1044018,LaZnFeSbO6,1.1670999999999996,0
mp-9386,CsAu3Se2,2.1741,0
mp-772400,Li2W(OF2)2,4.1690000000000005,0
mp-764837,Li2VOF4,2.4813,0
mp-23562,KIO4,2.3612,0
mp-652364,PNCl2,3.9764,0
mp-17971,Rb2Li14Pr3O14,0.0,0
mp-756104,Ge11N11O5,0.0,0
mp-775280,Li5Fe8(BO3)8,1.4565,0
mp-676552,Nd2Th8O19,2.7912,0
mp-567314,ErNi,0.0,0
mp-541236,Na5HfAs3,0.9022000000000001,0
mp-555251,SiO2,5.6355,0
mp-560900,RbSb2C2O4F5,3.068,0
mp-1043656,Ca(BiO2)4,0.0,0
mp-35512,Dy5AgS8,1.7318000000000007,0
mp-1043253,Mg(Fe2O3)2,0.7306999999999997,0
mp-753557,Li2CuSbO5,0.34830000000000005,0
mp-775387,Li4Fe3Co2Sn3O16,0.0,0
mp-642834,BaH5ClO3,4.9758000000000004,0
mp-1042943,MgV4O6,0.0,0
mp-558616,SrZnP2O7,4.4518,0
mp-1047952,BaCaVF7,2.3947999999999996,0
mp-12383,Sc2Te3,0.0,0
mp-1966,Cu3As,0.0,0
mp-15551,Sr2LiSi3,0.0,0
mp-976357,Lu3Sn,0.0,0
mp-980038,Tl3Ru,0.0,0
mp-14977,Na3Y(Si2O5)3,4.5279,0
mp-1030572,Te2MoW3(Se2S)2,0.0,0
mp-862902,PmDyMg2,0.0,0
mp-972130,Tl3Cr,0.0,0
mp-29956,Hg3(SI)2,1.3129,0
mp-6635,Ba2CaReO6,0.0,0
mp-559702,Pr2Ta2Cl2O7,3.0505,0
mp-972222,TaBeO3,0.0,0
mp-558122,GdSClO4,1.9163,0
mp-3323,SrZrO3,3.2114000000000003,0
mp-1043019,Ge2SbO6,0.0026999999999999247,0
mp-540934,CoHgC4(SN)4,0.7969,0
mp-1047193,Mg2AgWO6,0.044299999999999784,0
mp-1048124,Ba2Cr3O8,0.0,0
mp-643245,K3MnH5,1.5731000000000002,0
mp-862986,PmBr3,2.8814,0
mp-30560,NbCoSn,0.0,0
mp-5640,ErSnAu,0.007200000000000095,0
mp-866922,Ca2SnS4,2.2265,0
mp-630773,CdInGaS4,0.25780000000000003,0
mp-771660,MnP2O7,0.8066,0
mp-541491,U2Ge4Mo3,0.0,0
mp-570102,HoSiRu2C,0.0,0
mp-39144,SrLiPrTeO6,3.3073000000000006,0
mp-979939,Yb3W,0.0,0
mp-677042,Na7Zr4Si5PO24,4.4485,0
mp-1026027,Te2Mo2W(SeS)2,0.38019999999999987,0
mp-695365,LiAl3Si9(N7O)2,3.8741000000000003,0
mp-770477,Li2CuAsCO7,0.12069999999999992,0
mp-11031,CeAl7Au3,0.0,0
mp-667294,Ca5(PPd)6,0.0,0
mp-11147,Na5CuSO2,1.5228,0
mp-770736,Na4Cr2As(CO4)4,0.0,0
mp-18977,Ba2CaWO6,3.1774999999999998,0
mp-768762,Ho2TeO6,3.0134,0
mp-11646,Cd(C2N3)2,4.5428,0
mp-6761,NaTi2(PO4)3,2.4429,0
mp-20937,Cr3C2,0.0,0
mp-30170,Ba4Ge20Pd3,0.0,0
mp-3210,Ca(CoP)2,0.0,0
mp-735063,H7CSN3O4,5.4663,0
mp-763177,Li2VO2F,1.6982,0
mp-631333,LiPdW2,0.0,0
mp-1041904,CaMn(SiO3)2,3.2154999999999996,0
mp-579616,La2Si4CN6,0.0,0
mp-1029763,ZnSiN2,0.4885999999999999,0
mp-7548,BaSe3,0.9260000000000002,0
mp-684799,K5As4,0.0,0
mp-629443,Li2EuGeS4,0.20210000000000017,0
mp-669384,Cs2NaCo(CN)6,4.2881,0
mp-613652,PbClF,3.5912999999999995,0
mp-776452,Ca2Ti6N2O11,1.8034999999999997,0
mp-8462,Hf3Al2,0.0,0
mp-31238,Ba3(SbO3)2,2.9311,0
mp-765741,Li4Mn2V3Sb3O16,0.0,0
mp-18629,NaTmGeO4,3.6137,0
mp-984534,Dy2OsPd,0.0,0
mp-756054,Zr2N2O,0.19730000000000025,0
mp-780298,Li8Mn7Fe(BO3)8,2.9777000000000005,0
mp-570106,Yb(AlCl4)2,5.3967,0
mp-774236,Li3CrSiCO7,3.113,0
mp-556242,YF3,5.617299999999999,0
mp-1018093,CaGaGeH,0.5002,0
mp-504801,ErHO2,3.9820999999999995,0
mp-8804,Li6MoN4,2.6113,0
mp-1020596,NaGa(GeO3)2,2.6432,0
mp-15603,HoB2C,0.0,0
mp-1041064,Mg(MoO2)2,1.6158000000000001,0
mp-6017,Na3In(PO4)2,3.2621,0
mp-704988,Ni2(PO3)5,0.0,0
mp-37091,Sr(AlTe2)2,1.4454000000000002,0
mp-866152,TiBeCo2,0.0,0
mp-1048236,Ba2AlMo3O8,0.0,0
mp-753580,LiTiSiO4,0.0,0
mp-1025898,Te2Mo(WS2)2,0.0,0
mp-1189,PrAl2,0.0,0
mp-555575,Rb2AgC3(SN)3,3.1003,0
mp-10738,SmPPt,0.0,0
mp-764846,Li2MnF4,3.8456,0
mp-30566,Ti2Co,0.0,0
mp-667295,Cs7Cd3Br13,2.9374000000000002,0
mp-695793,ZnAs4(HO2)8,0.12529999999999997,0
mp-20490,NdNiSn,0.0,0
mp-1013912,LiCo3P3O13,0.0,0
mp-30940,Cd2Te2O7,1.7272999999999996,0
mp-976893,Ni3Sb,0.0,0
mp-770879,Fe5Co(PO4)6,1.4463,0
mp-27771,Nb3Br8,0.03069999999999995,0
mp-865329,Lu2MgTc,0.0,0
mp-721072,Cu3As2H2PbO10,0.0,0
mp-1008556,AlGaN2,2.6693,0
mp-28842,Si3PH9,4.2301,0
mp-863671,Pm2CuRu,0.0,0
mp-559610,Rb2NaAl2(PO4)3,4.6181,0
mp-17839,K3Na(SeO4)2,3.5517,0
mp-753671,PNO,5.0655,0
mp-29705,Rb6Sn2S7,2.1193999999999997,0
mp-996941,Cs2RbInBr6,2.5058,0
mp-27670,Rb4In2S5,2.0926,0
mp-5737,TbCuS2,1.1823000000000006,0
mp-703308,CsGaP3HO10,4.900499999999999,0
mp-15639,HgRhF6,0.0,0
mp-39160,CaTiFe(PO4)3,0.26459999999999995,0
mp-976139,Li3Mg,0.0,0
mp-554583,DyP5O14,5.2463999999999995,0
mp-19330,CaMoO4,3.5057,0
mp-22141,BaIn2,0.0,0
mp-21156,TbPb3,0.0,0
mp-583429,CuH8C6(N3O)2,0.0004999999999999449,0
mp-756580,SrLu2O4,3.3411,0
mp-649415,KBiN(ClO)3,3.1014999999999997,0
mp-615850,Pb2Se(NO4)2,2.4677,0
mp-778768,Li2Co3NiO8,0.0,0
mp-399,Te2Pt,0.0,0
mp-560997,KVF4,1.9296000000000002,0
mp-558647,Cu9Se4(Cl3O7)2,0.0,0
mp-570258,Ca3(AlN2)2,2.5263999999999998,0
mp-1210,ThCd2,0.0,0
mp-754631,NaCu2O3,0.0,0
mp-686038,Y(PO3)3,0.8271,0
mp-764620,LiFe4(BO3)4,1.6916000000000002,0
mp-23675,H4BrN,4.3113,0
mp-975443,InCuO3,0.0,0
mp-37263,Ca(NdTe2)2,1.0995999999999997,0
mp-23435,Bi2TeI,0.0051000000000005485,0
mp-676711,CIF5,1.2211,0
mp-2592,Si2Mo,0.0,0
mp-770588,Li2FeH4(SO5)2,4.236700000000001,0
mp-505297,NbSbRu,0.37490000000000023,0
mp-695545,TaTi9Al3Zn23O48,1.6626000000000003,0
mp-22604,InAsF6,3.3845,0
mp-558870,P3RuO9,0.0,0
mp-6226,NaSn4(PO4)3,3.7411000000000003,0
mp-8743,HoCoSi2,0.0,0
mp-1020110,Mg2SiO4,3.8213999999999997,0
mp-862297,LiAlRh2,0.0,0
mp-542992,DyGa3Ni2,0.0,0
mp-16430,Pr(FeP3)4,0.0,0
mp-23801,K2H2IrCl5O,1.8583000000000003,0
mp-1042756,Mg2Ni3O8,0.47429999999999994,0
mp-1043722,Ca(Ni2O3)2,0.0,0
mp-569386,P3NCl12,1.9051,0
mp-768342,SrNb2O4,1.1539000000000001,0
mp-19055,HoCrO4,0.6760999999999999,0
mp-776093,CsAsO3,2.6306,0
mp-2719,DyB4,0.0,0
mp-1029043,MoW3(Se3S)2,0.8647,0
mp-977454,HgPd2Au,0.0,0
mp-2550,NdTe2,0.0,0
mp-867346,ThCdHg2,0.0,0
mp-11217,SrAgSb,0.0,0
mp-30220,Ba3P3I2,0.0,0
mp-31149,Ca3BiN,0.36870000000000047,0
mp-560311,Na3FeF6,4.1281,0
mp-770901,LiFeCSO7,1.8918,0
mp-773699,LiMg(Fe5O8)2,1.3687,0
mp-22532,TbTiSi,0.0,0
mp-675651,MgPS3,2.7986,0
mp-685300,Ti4P8S29,1.0703000000000003,0
mp-699213,CsZn2P2HO8,3.9656,0
mp-5700,Sr2Cu3O5,0.0,0
mp-556826,Ca(BO2)2,5.456799999999999,0
mp-23407,Hg(IO3)2,2.6917,0
mp-4482,NaSbO3,2.7012,0
mp-1042873,Sn(GeO3)2,2.0843,0
mp-34052,Li7Ti7O16,0.0,0
mp-12406,US3,0.0,0
mp-864652,Nd3MnAlS7,0.4519000000000002,0
mp-792972,Mn3Cu2Sn(PO4)6,0.0,0
mp-9710,Sr2Si5N8,3.1978999999999997,0
mp-582984,Pr6Fe13Pb,0.0,0
mp-555000,MgH2(CO2)2,4.8844,0
mp-754978,CdCu2O3,0.0,0
mp-631561,ZrAgMo,0.0,0
mp-6392,NaBePO4,5.5745000000000005,0
mp-568856,Mn3As2,0.0,0
mp-17057,Sr2SnSe3F2,1.4478999999999997,0
mp-695866,BeH8(NF2)2,6.2707,0
mp-15788,LiYS2,1.9195999999999995,0
mp-17173,Rh2S3,0.19459999999999944,0
mp-863004,K2USO7F2,0.4244,0
mp-675195,Li13(Mn3As4)2,0.0,0
mp-5898,La(SiNi)2,0.0,0
mp-12996,LaMg2Pd,0.0,0
mp-1974,CeB4,0.0,0
mp-861576,Na3CoO3,1.3878,0
mp-778728,Li2MnVP2(HO5)2,0.46629999999999994,0
mp-772187,AlGaO3,3.1117000000000004,0
mp-973175,ScBi3,0.0,0
mp-542300,Na2B8O13,5.4478,0
mp-776479,BaYI5,2.7575000000000003,0
mp-1044024,LaZnFeSnO6,2.2267,0
mp-1014462,Li2YAl,0.0,0
mp-35143,BaNbS3,0.0,0
mp-560394,AsPbClO2,3.3353,0
mp-560785,K2Y4Sn2S11,1.5806,0
mp-28228,Ag7Te4,0.0,0
mp-561375,Pr10S19,0.5101000000000004,0
mp-22261,InCuTe2,0.0029999999999992255,0
mp-694970,SrLa7Cu4(SnO6)4,0.0,0
mp-29264,SICl7,1.6598000000000002,0
mp-22701,ScFeSi,0.0,0
mp-24193,NaH3O2,4.3479,0
mp-975394,RbBeO3,0.0,0
mp-570687,AgCl,0.8727,0
mp-13620,ScSi7Ir3,0.0,0
mp-1044012,MgFe2(PO5)2,0.0,0
mp-755949,Ca4I6O,3.2907999999999995,0
mp-568685,TmAlRh,0.0,0
mp-697033,CdH4CN2Cl2O,3.5746,0
mp-2313,MgIn,0.0,0
mp-780287,Li3Mn2(SiO4)2,0.0,0
mp-303,BaZn5,0.0,0
mp-1041365,MgBi4O9,1.0166999999999997,0
mp-675964,Li5GeAs3,0.0,0
mp-1028604,TeWS,0.0,0
mp-22101,DyMnSi,0.0,0
mp-771762,Ho3Sb5O12,3.1294,0
mp-610917,O2,1.3227,0
mp-1048535,CaCrP2O7,2.5122,0
mp-4334,Sm(CoGe)2,0.0,0
mp-774886,Li4Nb3Cu3(TeO8)2,0.0,0
mp-9906,Y(Re2Si)2,0.0,0
mp-30825,PaRh3,0.0,0
mp-757159,LiSiBiO4,3.1885000000000003,0
mp-977413,HoCdHg2,0.0,0
mp-27801,TlAgI2,1.5659,0
mp-29349,HSN,3.3071999999999995,0
mp-631376,SrMn2Si,0.0,0
mp-758435,Li2CuSiO4,0.0,0
mp-1019381,Al7Si3BO18,4.6157,0
mp-32113,Mo2P3O13,1.1507,0
mp-12193,Nd2Ti2O7,2.9231000000000003,0
mp-29633,LiGePd2,0.0,0
mp-2480,OsSe2,0.0,0
mp-973374,LiMg2,0.0,0
mp-863294,RbVGa(PO5)2,0.6353000000000001,0
mp-17412,BaPr2O4,3.0742999999999996,0
mp-768680,CrP2S7,0.0,0
mp-27764,K4I2O9,1.9183,0
mp-1027036,Te6MoW3S2,0.0,0
mp-977580,MgSc2Al,0.0,0
mp-569030,BeCl2,6.3715,0
mp-1048387,BaYFe4O7,1.4460000000000002,0
mp-756018,BaMgO2,3.1592000000000002,0
mp-22301,Sr2DyCu3(PbO4)2,0.0,0
mp-865158,YbNdHg2,0.0,0
mp-570530,Cs(BCl)6,3.2599,0
mp-973069,HoLuTl2,0.0,0
mp-569595,PbI2,2.4080000000000004,0
mp-685003,Tb2Se3,1.5314000000000005,0
mp-17623,SmCo9Si2,0.0,0
mp-759958,AsH3C(SF2)3,2.7919,0
mp-1018050,CrC,0.0,0
mp-13275,NaSrP,1.2357,0
mp-23311,EuBr2,1.0457999999999998,0
mp-768486,Sb2(SO4)3,3.6732,0
mp-11237,ScAg,0.0,0
mp-1045490,Ca(MoO2)4,0.15300000000000047,0
mp-780473,Mn6OF11,0.0968,0
mp-1028947,MoW3(SeS)4,0.899,0
mp-157,P,0.010399999999999743,0
mp-769129,Li3SbN3(O3F)3,3.3377999999999997,0
mp-642661,BaH2Cl2O,5.05,0
mp-972530,Sm2AgRh,0.0,0
mp-11248,LiAu3,0.0,0
mp-1044931,LaVZnCrO6,1.5343,0