mp_id,formula,band_gap,fidelity
mp-9249,NaGeAu,0.0,0
mp-770880,Li3Ni(BO3)2,1.2337,0
mp-1027581,Te2Mo2SeS,0.22870000000000035,0
mp-1044215,ZnCr4O8,0.0,0
mp-22197,UNi4Sn,0.0,0
mp-8717,Rb2MnSe2,1.1227999999999998,0
mp-570,NdTe,0.0,0
mp-6342,LiCa3RuO6,0.31110000000000015,0
mp-704604,Zr(MoO4)2,3.0967000000000002,0
mp-18334,NaHoGeO4,3.6055,0
mp-774326,Ni3OF5,0.6995999999999999,0
mp-976772,NiAg3,0.0,0
mp-21082,Dy(GeRu)2,0.0,0
mp-695243,Na2SrLa2Ti5O15,1.995,0
mp-554651,K3Pu(H3O4)2,0.7253000000000001,0
mp-774366,Li3MnFe2(BO3)3,2.7129999999999996,0
mp-7691,YB4Mo,0.28219999999999956,0
mp-561308,CuH14C3NCl3O2,0.6228,0
mp-643086,MoP4C5S3O5,2.1921,0
mp-607138,Sc5Bi3,0.0,0
mp-756180,Ba2Hf7O16,4.0367,0
mp-19890,URe2,0.0,0
mp-684029,CdI2,2.3629,0
mp-779622,Be2P2O7,5.5953,0
mp-771918,Li2MnPO4F,3.5992999999999995,0
mp-22446,Li2PrSb2,0.0,0
mp-698068,SnPH5NO4F,2.8792,0
mp-19979,La(NiGe)2,0.0,0
mp-2460,Er2O3,4.1066,0
mp-3563,Ba5Nb4O15,2.5991,0
mp-981311,SrTlHg2,0.0,0
mp-645687,CsTi(PS4)2,1.3716000000000002,0
mp-561045,Ba8Ce3(SbO6)4,1.8772000000000006,0
mp-982384,TbH3,0.02629999999999999,0
mp-22688,CuSeO3,0.2102000000000004,0
mp-1048660,Sr4CaFe2(SO3)2,1.0941999999999994,0
mp-555457,Te2S(O2F3)2,4.0102,0
mp-686464,Ca10P6SO24,3.7466,0
mp-15322,ScCuSi,0.0,0
mp-12015,KAg2AsO4,0.2073999999999998,0
mp-22682,In2Pt,0.0,0
mp-16622,NdAl7Au3,0.0,0
mp-1018738,LaAl2BRu2,0.0,0
mp-753152,LiCuCO3,1.6143,0
mp-672335,YIn2Ni9,0.0,0
mp-1003735,MgMn2O4,1.1923999999999997,0
mp-733481,B8H10N,0.4686,0
mp-2330,Nb2Se3,0.0,0
mp-570751,Nb3Te,0.0,0
mp-779982,Hf2N2O,1.9263000000000003,0
mp-706664,B10H13,3.41,0
mp-973554,K3Sm,0.0,0
mp-6144,Na2La2Ti3O10,2.0913999999999997,0
mp-1013922,LiCr2P2O9,0.6364999999999998,0
mp-684744,Fe2N,0.0,0
mp-19984,TbB4,0.0,0
mp-34047,H(WO3)2,0.40149999999999997,0
mp-510378,CsMnSb,0.0,0
mp-28597,Na5InTe4,1.2161,0
mp-555976,Na2TiSiO5,3.2081,0
mp-972794,SiSb3,0.0,0
mp-561288,K3LiIrO4,0.39849999999999985,0
mp-863705,Pm2MgGa,0.0,0
mp-557583,TlInAs2O7,2.992,0
mp-862932,ThInAg2,0.0,0
mp-971833,Tm3V,0.0,0
mp-861595,Pr2CdCu2,0.0,0
mp-19876,InNi,0.0,0
mp-764888,Li3Fe4(BO3)4,1.3589,0
mp-695074,KNa3Al4(SiO4)4,4.0624,0
mp-775803,Ti2N2O,0.9375999999999998,0
mp-675650,Ca(YbS2)2,0.0,0
mp-569149,K2TeCl6,2.5562,0
mp-773516,Li3NiO3,1.4143999999999999,0
mp-29232,ZrPb3F10,4.674,0
mp-542388,Lu7Te,0.0,0
mp-13494,Nd3Fe29,0.0,0
mp-30774,MgNi2Sn,0.0,0
mp-569313,Mg3Si8Ir3,0.0,0
mp-997044,CuO2F,0.0,0
mp-777452,LiNbCoO4,2.2355,0
mp-2652,Y2O3,4.0531,0
mp-975404,RbCa3,0.0,0
mp-6080,BaNd2CoS5,0.0,0
mp-774708,ZnH12C3S4(N3O2)2,4.0889999999999995,0
mp-1046474,Ba2Ca2Tl2Co3O10,0.0,0
mp-775202,CrSb3(PO4)6,1.2841000000000002,0
mp-630328,Ba3FeS5,0.0,0
mp-30969,Ho12Co7,0.0,0
mp-676645,Ga2(Hg4Te5)3,0.0014999999999996128,0
mp-559633,Cu6PbO8,0.0,0
mp-774276,Li2Cr3SnO8,0.9318,0
mp-924128,HfNiSn,0.38539999999999974,0
mp-779456,Y2ReO5,0.8513000000000002,0
mp-25,N2,7.3311,0
mp-771046,Mg(NO3)2,3.7225,0
mp-505693,Mg2GeB2Rh5,0.0,0
mp-698440,SiBHC3NCl2,0.7866,0
mp-34501,Fe2CoO4,0.07299999999999951,0
mp-765511,Li6VO5F,2.2588999999999997,0
mp-19258,Ba2SmMoO6,0.0,0
mp-976409,K3Nb,0.0,0
mp-685941,In4SbTe3,0.0,0
mp-259,AlMo3,0.0,0
mp-22186,In6Ge2PtO9,1.3445,0
mp-762116,LiCu4(PO4)3,0.0,0
mp-1041044,ZnP2W2O9,0.7317,0
mp-772055,Li6Ti2O7,2.9524,0
mp-13156,HfAg,0.0,0
mp-8320,SmScSi,0.0,0
mp-767696,V2Co(H4O5)2,0.0,0
mp-867217,CaPrHg2,0.0,0
mp-733854,K2In2P2HO10,0.13490000000000013,0
mp-676362,HIO4,1.5685,0
mp-5425,RbCuC2,1.9542000000000002,0
mp-978927,SmEr3,0.0,0
mp-779533,Ba3(BrO)2,2.2906,0
mp-766287,BaCa2I6,3.0888999999999998,0
mp-760414,Ti3PdO,0.0,0
mp-981396,Y(BIr)4,0.0,0
mp-1016144,MgMn3O6,0.0,0
mp-27307,Na2ZrF6,6.251799999999999,0
mp-18024,Hf9BMo4,0.0,0
mp-567551,SiC,1.9716000000000005,0
mp-530303,Mg(GaO2)2,2.2577,0
mp-680222,SiO2,5.5951,0
mp-644419,LiHS,3.5253,0
mp-29352,Ba2PdO3,0.01750000000000007,0
mp-21719,Sc2V3Ge4,0.0,0
mp-977128,NaRu3,0.0,0
mp-571593,CdI2,2.3731,0
mp-866002,YbTl2Cd,0.0,0
mp-1767,Tm2O3,3.9787,0
mp-554599,SnS2(O3F)2,4.2665,0
mp-1001825,LiBe,0.0,0
mp-978091,Pr2Fe17C3,0.0,0
mp-31292,Rb2PdSe16,0.8510000000000002,0
mp-542752,Ce4Co2Sn5,0.0,0
mp-11258,TbAu,0.0,0
mp-1043624,Mg(SbO2)4,0.0,0
mp-579556,CsHoZnTe3,1.3805000000000005,0
mp-780488,LiCrP2H5O9,3.0151000000000003,0
mp-505390,Ba2ReO5,0.0,0
mp-27544,Cs3Bi2Br9,2.5995999999999997,0
mp-1044764,ZnSn2(PO4)2,2.5225,0
mp-20497,SrIn2Ir,0.0,0
mp-694892,CaLa3Mn4O12,0.0,0
mp-28509,Ta4SiTe4,0.02859999999999996,0
mp-631507,BeBiOs2,0.0,0
mp-530,Nd4Sb3,0.0,0
mp-685014,In2Br3,2.1261,0
mp-554627,Cu6PS5Br,0.8183999999999996,0
mp-769147,Y2(SeO4)3,3.8169000000000004,0
mp-559168,Sb2(KrF4)5,1.1692,0
mp-13592,TlB(CN)4,5.2178,0
mp-1045867,Ba2Mn2ZnCuF14,0.885,0
mp-723065,H2C2S3N2(OF)6,5.8983,0
mp-866811,CaSnS3,0.7503000000000002,0
mp-768539,AlTlO3,0.7376999999999994,0
mp-977229,Li3Cr,0.0,0
mp-676673,NaClO2,2.2793,0
mp-555156,MnCrF5,2.2668,0
mp-850135,Li3V2Cr2O8,0.8428000000000004,0
mp-24708,ZnH8SO8,4.6838,0
mp-18866,CaV4O9,2.4882000000000004,0
mp-2238,Dy2C3,0.0,0
mp-772922,Al3P3H9C2NO13,5.1942,0
mp-1028590,Te2W2SeS,0.0,0
mp-15177,Ho4C7,0.0,0
mp-557017,SiO2,2.5295,0
mp-684004,YbCeS3,0.26620000000000044,0
mp-561457,CsAlSiO4,4.458200000000001,0
mp-555191,La3Si2Cl3O7,4.1096,0
mp-867896,ScZnCu2,0.0,0
mp-764752,LiV2OF7,1.8488,0
mp-568851,LuNiGe,0.0,0
mp-1013546,Ca3Sb2,0.08640000000000025,0
mp-38125,Sm2CdSe4,1.0448000000000004,0
mp-753216,LiAg2F4,0.0,0
mp-649039,Ga2Fe2Bi2O9,1.8124000000000002,0
mp-1048779,Mg(BiO3)2,0.17490000000000006,0
mp-31103,Ni3Te2,0.0,0
mp-740722,Na3GeH11O9,3.8724000000000003,0
mp-1559,Mg3N2,1.5099999999999998,0
mp-6491,Na2ZnP2O7,4.0485,0
mp-631317,NaIrPb,0.0,0
mp-975592,Pr3I,0.0,0
mp-542630,P4S9,2.6953,0
mp-2811,MoN,0.0,0
mp-33436,Tl(WO3)6,0.0,0
mp-770382,Li3V3(BO5)2,1.0475000000000003,0
mp-554835,KZrVF7,2.4296,0
mp-2447,P4Se5,1.8240999999999998,0
mp-28903,Zr6FeCl14,1.446,0
mp-850868,NbH8N2O2F5,4.5788,0
mp-556689,KZrF5,5.5642,0
mp-1047092,Sr2Y2Cr2O7,0.9943,0
mp-867185,Pu3O2,0.0,0
mp-861665,LiTmIn2,0.0,0
mp-8180,LiNO3,2.9369,0
mp-667315,ScNb6Cl13O3,0.9312999999999998,0
mp-760729,Ca2Ga2Si(HO4)2,3.5111999999999997,0
mp-1214,VS,0.0,0
mp-534778,NaCa2ScZn2(SiO3)6,4.2934,0
mp-651026,Os2C6SeO6,1.8468,0
mp-12602,PrZn5,0.0,0
mp-999264,ReN,0.0,0
mp-977204,NaTl2Sb,0.0,0
mp-720817,MgAsH15O11,4.1585,0
mp-12295,Sr3La2(BO3)4,4.1562,0
mp-1008752,CeTe,0.0,0
mp-18907,Ca2MnAlO5,0.0,0
mp-772265,MnPO4,0.9055,0
mp-768137,Na2SnPCO7,0.0,0
mp-557115,Cs2As2OF10,3.932,0
mp-20726,SrCaSn,0.2909999999999999,0
mp-706624,H9OsN7Cl2,0.08870000000000003,0
mp-21206,Yb3GaC,0.0,0
mp-774238,Li4Nb(FeO4)3,0.0,0
mp-675214,Rb2Bi3F11,3.8503000000000003,0
mp-632348,YbHO2,0.0,0
mp-27310,Na4Sn3F10,3.5349,0
mp-27914,Na3BiO3,2.8361,0
mp-29663,Si3Ir,0.0,0
mp-18996,TlV3O8,2.0029999999999997,0
mp-755613,LiTiO4F3,1.3617,0
mp-15560,Ga(PO3)3,4.8881000000000006,0
mp-755943,CaPbI4,2.6263,0
mp-782035,Al2O3,4.662399999999999,0
mp-850274,H2,8.743400000000001,0
mp-685992,Li2CrCl4,0.43169999999999975,0
mp-554379,AsXeF11,2.0241000000000002,0
mp-541954,Fe2P2H4O9,3.6173,0
mp-765597,HS2IO8,2.7664999999999997,0
mp-554264,Ba3Tb2(PS4)4,2.3711,0
mp-19771,Dy(CoGe)2,0.0,0
mp-1711,Er3Ge4,0.0,0
mp-867925,SrAcHg2,0.0,0
mp-773444,MgV3O7,2.3876,0
mp-1008625,W2C,0.0,0
mp-557869,S,2.6076,0
mp-581024,CsK2Sb,0.8633999999999997,0
mp-978277,Mg3Cr,0.0,0
mp-2150,BaTe2,0.34250000000000025,0
mp-1047502,AlBi3F15,0.019799999999999596,0
mp-6096,TlHg(AsS2)3,1.6747999999999998,0
mp-1020599,Na5B(SO4)4,5.3015,0
mp-7831,MgIn2O4,1.838,0
mp-568263,GaSe,1.2081000000000002,0
mp-578606,NaCuO2,0.009200000000000319,0
mp-18633,K8SnSb4,0.31899999999999995,0
mp-765222,LiSn3(P3O10)2,0.2083999999999997,0
mp-1600,BaHg11,0.0,0
mp-562018,CSNF5,4.302,0
mp-573622,Dy12Co7,0.0,0
mp-27953,Mo2N,0.0,0
mp-1045681,MgSbAs2SeO7,0.5017,0
mp-560152,SiO2,5.6113,0
mp-699469,AlH15N5Cl3,4.6579999999999995,0
mp-675781,Cu3(Mo3S4)4,0.0,0
mp-23902,PH3O4,5.9151,0
mp-2885,Ga(MoS2)4,0.0,0
mp-24433,KHSeO3,4.2347,0
mp-18938,Tl2MoO4,3.4611,0
mp-11985,LaMgTl,0.0,0
mp-558154,Ag3PO4,0.0,0
mp-1475,Be12Mo,0.0,0
mp-22228,DyCoSn,0.0,0
mp-510065,CsNdHgSe3,1.3561000000000003,0
mp-1020725,Sr4Li2B12O23,4.6951,0
mp-3758,Eu(NiP)2,0.0,0
mp-976187,Pr(Al2Fe)4,0.0,0
mp-560144,K2RuBr5NO,1.6301,0
mp-624486,K2Sn(GeO3)3,2.6278,0
mp-641703,Li7P3S11,2.4142,0
mp-998233,InGeCl3,2.2298999999999998,0
mp-1013750,Sn4SF6,2.4495000000000005,0
mp-1044571,PrMg(CoO3)2,0.0,0
mp-15325,BaAs3,0.0,0
mp-14142,TiZnO3,3.0906,0
mp-14623,K5CuAs2,0.26129999999999987,0
mp-1536,KSb,0.9049,0
mp-754768,Tb2Pt2O7,1.3893,0
mp-861457,LiV2OF5,0.7683,0
mp-973757,PmBiRh2,0.0,0
mp-1047618,VO2,0.6111,0
mp-8446,K2CuP,1.1421000000000001,0
mp-22936,Ca2NCl,2.3688,0
mp-972759,Tm2Ni12As7,0.0,0
mp-721301,H4CS(NO)3,3.3221000000000003,0
mp-571333,Ca5(SiN3)2,2.1605,0
mp-866695,ReTeSeCl4,2.3069,0
mp-560139,S2XeNO4F3,2.7588999999999997,0
mp-695571,Na5Ca6Nd5Zr16O48,3.6137000000000006,0
mp-757333,Al12PbO19,4.518599999999999,0
mp-567248,Yb4Mn2Sn5,0.0,0
mp-31358,RbBO2,3.9289,0
mp-971724,Ti2Si2O5,0.0,0
mp-631334,LiTc2Pd,0.0,0
mp-769734,ScFeO3,1.5712000000000002,0
mp-3414,AgSbF6,1.7671999999999999,0
mp-9278,U2Si4W3,0.0,0
mp-19151,BaYCo4O7,0.19620000000000015,0
mp-757466,Li3Si2BiO7,3.7837000000000005,0
mp-542390,Ho(SiNi5)2,0.0,0
mp-36111,LiMgP,1.5391000000000004,0
mp-1026016,Te2Mo2W(SeS)2,0.0,0
mp-571306,Ca2Zn2CuP3,0.2726000000000006,0
mp-1001826,VN,0.0,0
mp-1045596,YCu3(AgO3)4,0.0,0
mp-22794,TmGeRh,0.0,0
mp-1048631,Sr3CaMn2S2O5,0.0,0
mp-5061,Li5ReO6,2.1582999999999997,0
mp-1042921,MgSb2O5,0.0,0
mp-698313,Rb2CuH4(C2O5)2,0.5337000000000001,0
mp-30404,Li2SbAu,0.0,0
mp-697196,Ta,0.0,0
mp-23181,SrI2,3.8415,0
mp-30439,Ta6Be15Cu8,0.0,0
mp-861511,PuP3,0.0,0
mp-29678,AgBiS2,0.9135999999999997,0
mp-10182,LiZnP,1.3386,0
mp-694929,SrLaTa2(NO)3,1.0135000000000005,0
mp-17891,NaYSiO4,4.2827,0
mp-1601,TaRu,0.0,0
mp-773206,Li3CrSiBO7,1.0319999999999998,0
mp-865916,TiVRe2,0.0,0
mp-695214,Ba9La3Mg5Nb7O36,2.3787,0
mp-1027615,Te2MoWS2,0.0,0
mp-13962,HfSiSe,0.0,0
mp-685151,TiO,0.0,0
mp-1565,ZrO2,3.125,0
mp-768663,Na3SiBiCO7,3.2499000000000002,0
mp-693463,NaCa3ScZn3(SiO3)8,4.2163,0
mp-780534,Rb(BH)5,4.0007,0
mp-675349,DyCuSe2,1.0667999999999997,0
mp-561110,SiPb4(ClO)4,3.5302999999999995,0
mp-755901,Sm3NbO7,2.6062,0
mp-20870,Dy2InPd2,0.0,0
mp-524,Ba3As14,1.1763,0
mp-754,Te2Rh,0.0,0
mp-698666,Li2MoO3,0.5515999999999996,0
mp-7720,Ce2Ga10Ni,0.0,0
mp-30303,Bi4O7,0.9039999999999999,0
mp-1018162,CeBiPt,0.0,0
mp-676800,Ti7Ni3N10,0.0,0
mp-695396,Na3SrTiNb3O12,1.6564999999999999,0
mp-974469,ReTe,0.0,0
mp-571293,Rb2BaNb2Se11,1.5116999999999998,0
mp-11082,CeCdAu,0.0,0
mp-3082,CaSO4,5.6745,0
mp-976182,PrErTl2,0.0,0
mp-642890,LaSe,0.0,0
mp-25906,Bi(PO3)4,0.0,0
mp-1028757,TeW2SeS2,0.0,0
mp-1040816,LaCrSbO6,0.3176999999999994,0
mp-6169,Ba3Ta6(Si2O13)2,3.0288000000000004,0
mp-669391,Ca4Zn2Cu3P5,0.0,0
mp-624474,Ru(SCl3)4,0.10749999999999998,0
mp-571592,CdI2,2.386,0
mp-642238,Y6AgTe2,0.0,0
mp-21836,K2In12Se19,0.8491,0
mp-23828,Sr7(H6Br)2,3.7046,0
mp-24171,SrPH3O4,5.7674,0
mp-559738,SbSNCl5,1.7869,0
mp-773069,ErTa3O9,2.6546000000000003,0
mp-765744,Mn4O7F,0.0,0
mp-9631,AlAgO2,1.4090999999999996,0
mp-555329,CSe2S2N2(OF)3,1.4531,0
mp-685956,In4As3Se,0.0,0
mp-675733,Y5(ReO6)2,0.0,0
mp-505396,CsNa3PbO4,1.4986000000000002,0
mp-625807,Al(HO)3,4.3037,0
mp-21449,NbCoP,0.0,0
mp-770524,Li4Mn3V3Cr2O16,0.33550000000000013,0
mp-776749,Li2V3CuO8,0.0,0
mp-1018707,GdSe2,0.0,0
mp-10112,LaB2Ir3,0.0,0
mp-770717,Na2VPCO7,2.1236999999999995,0
mp-29387,K5SnBi3,0.0032999999999998586,0
mp-11106,PaAs2,0.0,0
mp-1317,CoSb3,0.1651000000000007,0
mp-9095,Tb2Si3,0.0,0
mp-642301,Y7Te2,0.0,0
mp-561949,GdBO3,2.2426999999999997,0
mp-556106,SrB2F8,8.145199999999999,0
mp-555259,UTe2PbO8,1.9725000000000001,0
mp-559893,LiBi(PdO2)2,0.44599999999999973,0
mp-762505,Ti3Co3(SbO8)2,0.10679999999999978,0
mp-24030,ZrP2(HO3)2,4.1126,0
mp-541570,SrZrSe3,0.16800000000000015,0
mp-780140,Li5(CoO2)4,0.5904000000000003,0
mp-754468,NaCuO2,0.5377999999999998,0
mp-20265,LiIn2Pt,0.0,0
mp-873,VPd3,0.0,0
mp-735822,Fe3Pb8F24,1.6795999999999998,0
mp-3346,HoZrSb,0.0,0
mp-675678,Nd4Ag2Se7,1.5042,0
mp-643701,TlP(HO2)2,3.9882000000000004,0
mp-583221,Ba7B4Se13,2.1147,0
mp-560066,SbSO2F5,3.4443,0
mp-19784,In2Si2O7,1.8171,0
mp-40685,NaSm3Ti2(SbO7)2,2.2791,0
mp-6648,KLiB4O7,5.0827,0
mp-677311,Re3Pb3O10,0.0,0
mp-975333,LiCaO3,0.0,0
mp-1089,TiIr3,0.0,0
mp-41236,Ba2La2Zn(WO6)2,3.0862,0
mp-768163,Li7(SbS)2,0.7913000000000001,0
mp-574486,Ag2CN2,0.9996999999999998,0
mp-771110,Li4Mn5P6WO24,2.4972,0
mp-777065,NaMnPCO7,0.9334,0
mp-27380,FeMo3S4,0.0,0
mp-863686,Pm2HgGe,0.0,0
mp-677715,B3H60C16(NO)12,0.0,0
mp-770645,Li8HfO6,3.9011,0
mp-62,Pa,0.0,0
mp-559932,KTeOF3,4.2120999999999995,0
mp-756541,K6YO4,0.0,0
mp-558430,BaB2F8,8.043,0
mp-24674,Be3P2(H2O5)2,5.8481,0
mp-2806,YbSn,0.0,0
mp-22982,CuBiS2,0.4640000000000004,0
mp-554459,Pr6S4BrN3,1.2631000000000001,0
mp-972246,Tb2ReC2,0.0,0
mp-762029,LiAg2F4,0.0,0
mp-634716,CuH12(IN)4,0.7494999999999999,0
mp-9138,RbPO3,4.7607,0
mp-19810,TaNiTe2,0.0,0
mp-1018807,MoSe2,1.2530999999999994,0
mp-989195,ScClO,3.9227999999999996,0
mp-22625,Cr2CuTe4,0.0,0
mp-22419,NdSnPd,0.0,0
mp-771568,SrCa2I6,3.7101,0
mp-558867,H7ClO7,5.2091,0
mp-11255,PrAu,0.0,0
mp-1008642,UC2,0.0,0
mp-756009,NaCu3O4,0.0,0
mp-2633,GeO2,0.7843,0
mp-34337,H4NCl,4.9341,0
mp-568796,RbYbI3,3.6052999999999997,0
mp-1729,SmFe2,0.0,0
mp-1046467,SrCaP2WO8,2.2244,0
mp-37520,Ca(PrTe2)2,1.1032000000000002,0
mp-13963,HfSiTe,0.0,0
mp-27735,GaSbCl6,3.928,0
mp-757586,Ba2Tl(HO)7,2.4953000000000003,0
mp-625663,ScHO2,4.4857,0
mp-569050,NaW6NCl18,0.6013000000000002,0
mp-1030136,Te6MoW3S2,0.0,0
mp-772843,KSiPCO7,5.168,0
mp-1043643,CaFe(Si2O5)2,3.7151000000000005,0
mp-17738,Sr2Cu(SeO3)3,0.46110000000000007,0
mp-622619,UVAgO6,1.6036,0
mp-1013735,Ca3Bi2,0.0,0
mp-7719,NaTm(SO4)2,5.7586,0
mp-615529,Os2Pt(CO)10,2.5877,0
mp-956,U3Si,0.0,0
mp-676501,K3Sn2S3BrO12,3.4126000000000003,0
mp-8122,ErCuSi,0.0,0
mp-769653,Li2TiFe2O5,1.4740000000000002,0
mp-707931,H3Os4C12ClO12,2.5768999999999997,0
mp-2624,AlSb,1.2272999999999996,0
mp-721415,CuH12N2(Cl2O)2,0.5328999999999999,0
mp-2929,BaTbO3,0.0,0
mp-978009,HgOs,0.0,0
mp-1048382,BaAlCo4O7,0.18699999999999983,0
mp-567769,Ca(SiPd)2,0.0,0
mp-780240,Gd2P4O13,3.2682,0
mp-690644,TlInS2,0.0,0
mp-569823,YInAg2,0.0,0
mp-780146,Fe3(OF2)2,1.4056,0
mp-23623,B5Pb2BrO9,3.4053000000000004,0
mp-1043888,Sr2GaNi2O7,0.0,0
mp-18585,RbAgSe4,1.1614000000000002,0
mp-862563,Sc2BeTc,0.0,0
mp-30651,MgGa2,0.0,0
mp-15607,Ca(BC)2,0.0,0
mp-973930,NpBeO3,0.0,0
mp-24654,KZnP2H5O9,4.4686,0
mp-985626,Na3Mn2SbO6,1.1822,0
mp-849761,GaBi25O39,2.1910000000000007,0
mp-975650,Pr2ZnHg,0.0,0
mp-738680,ZrH27C8N2Cl5O2,3.926,0
mp-683919,C,1.1046999999999998,0
mp-677135,Li2CoCl4,0.0,0
mp-780671,SrTaNO2,0.7380999999999993,0
mp-27311,LaCO,3.0016000000000007,0
mp-11411,ScGa,0.0,0
mp-29587,Pr3(BN2)2,0.0,0
mp-777517,Ti3Cu2Ni(PO4)6,0.0,0
mp-1046694,MgVSiO5,1.2984999999999998,0
mp-696717,H7O4,0.0,0
mp-755738,Rb2O,1.6455,0
mp-765617,Li4Fe2Cu3Te3O16,0.0,0
mp-776215,Li2Ti3NbO8,0.0,0
mp-15799,NbN,0.0,0
mp-32352,LiNi(PO3)4,0.9354,0
mp-978997,Sm(NiBi)2,0.0,0
mp-19329,Na2V(PO4)2,2.7586000000000004,0
mp-568726,Mo(SeCl6)2,0.0,0
mp-19383,Ti4Mn(PO4)6,2.4649,0
mp-560873,Pr3Nb(Cl3O2)2,2.9226,0
mp-1008702,Ti2In,0.0,0
mp-559868,NaLa(CO3)2,3.9031,0
mp-556356,Na2SrAl4(SiO4)4,4.7044999999999995,0
mp-570173,K2SnCl6,2.4614,0
mp-695434,Li7Zr3Nb(TeO6)4,1.915,0
mp-570537,Ce2Br3N,0.0,0
mp-568244,TlSn2Br5,2.3666,0
mp-705332,LiCoP2O7,0.8663000000000001,0
mp-4138,Rb2CO3,3.2778,0
mp-974221,HoErTl2,0.0,0
mp-541175,Sc7CoI12,0.24110000000000031,0
mp-1032273,Mg6CuSiO8,0.0,0
mp-766079,Sr8Cu8O17,0.0,0
mp-743600,ZrFeP3PbO12,2.3786,0
mp-552729,KIO3,2.5681999999999996,0
mp-24757,AlBP2H5NO9,5.2797,0
mp-977354,HoTaOs2,0.0,0
mp-22708,Th3Co3Sb4,0.0,0
mp-22216,In2S3,0.8348999999999998,0
mp-7582,GeS2,2.5744,0
mp-568595,Re4Si7,0.04190000000000005,0
mp-16504,HoAl4Ni,0.0,0
mp-1009087,BeSiAs2,1.0215999999999994,0
mp-543042,ScP(H2O3)2,4.8637999999999995,0
mp-683666,Cu2WO4,0.9481999999999999,0
mp-780353,Na6B4Sb2SO16,0.0,0
mp-30708,HfNi2,0.0,0
mp-8418,ZrCoP,0.0,0
mp-757785,Bi12PbO19,2.0968999999999998,0
mp-1021674,NiCl,0.0,0
mp-10530,Tm2AlSi2,0.0,0
mp-36733,La2CdSe4,1.0990000000000002,0
mp-13170,KNaGdNbO5,2.7177999999999995,0
mp-510605,Gd2Zr2O7,0.0,0
mp-865546,Yb2AgBi,0.0,0
mp-558469,Ag2PS3,1.7759000000000005,0
mp-10302,Ba2ScIrO6,0.0,0
mp-684841,KMg3AlSi3(O5F)2,3.7646999999999995,0
mp-2423,US,0.0,0
mp-1016107,Hf6Zn6N,0.0,0
mp-28497,Cs2CrCl4,0.0,0
mp-29083,NaErCl4,4.985,0
mp-975064,HoReB4,0.0,0
mp-2332,Ho2C3,0.0,0
mp-631495,BaYSc,0.0,0
mp-1043269,MgNi2O5,0.0,0
mp-974421,IrRu,0.0,0
mp-780879,LiMn3P3(HO6)2,3.4415,0
mp-1047854,CaV3P3O13,1.4322,0
mp-862703,Sc2AgAu,0.0,0
mp-977430,MgNbRu2,0.0,0
mp-20844,Dy3(CuSn)4,0.0,0
mp-996963,CdAgO2,0.0,0
mp-1030281,Te6Mo3WS2,0.044700000000000184,0
mp-562387,Li6Tb2O7,0.0,0
mp-556223,CSNF5,5.4307,0
mp-20238,Th(FeGe)2,0.0,0
mp-867022,CaSnS3,1.1208,0
mp-569304,C,0.014800000000000035,0
mp-24285,NpH2,0.0,0
mp-1046446,SrCaCr(PO4)2,3.1243,0
mp-669421,AlTlSiO4,2.8133999999999997,0
mp-983550,Pa3Nb,0.0,0
mp-10244,Zr3(CuSi)4,0.0,0
mp-1018054,HfPt3,0.0,0
mp-24297,SrP2(HO)4,5.430400000000001,0
mp-1030239,Te2MoWSe2,0.027900000000000258,0
mp-104,Sb,0.0,0
mp-999053,Ti2GaNi,0.0,0
mp-18788,CrCoO4,1.4983,0
mp-753845,LiCuO2,0.2729999999999999,0
mp-1161,LaSe,0.0,0
mp-634101,HCl,2.7912,0
mp-974371,Rh3Br,0.0,0
mp-549,ScSb,0.0,0
mp-1623,ErS,0.0,0
mp-20116,Tl3Ir(NO2)6,0.0,0
mp-2083,Sn2Ir,0.0,0
mp-7470,RbCuO,1.1566000000000003,0
mp-770557,Mn2P2O7F2,0.8102,0
mp-4887,BaCeN2,0.6481000000000003,0
mp-775980,ZrO2,3.5759999999999996,0
mp-24142,MgAlH4O2F5,5.837,0
mp-761033,Hf3N2O3,3.1517999999999997,0
mp-704836,CaTiSiO5,1.395,0
mp-567441,HfIN,1.0064999999999995,0
mp-1006368,Ce2SnSe4,0.0,0
mp-10256,VTe,0.0,0
mp-1009127,MgO,2.2549,0
mp-676459,Ca2LaF7,5.8738,0
mp-557123,Na2CuSi3O8,0.7571000000000001,0
mp-675601,Al3NO3,4.0828999999999995,0
mp-865986,Li2CaGe,0.0,0
mp-850899,Mn3OF8,0.45210000000000006,0
mp-767945,Mg7Co17O32,0.0,0
mp-532575,Na13Ca7S12(O16F)3,5.2446,0
mp-29521,RbBiO2,2.2042,0
mp-4190,CaSnO3,2.9435,0
mp-25960,Bi(PO3)4,0.0,0
mp-766274,Cu2H3NO6,0.0,0
mp-510508,Ba2(IrO3)3,0.0,0
mp-734836,ZnH12C6S2(N5O)2,3.7795,0
mp-1048921,CaLaCrWO6,2.1252000000000004,0
mp-567159,Dy6Ti4Al43,0.0,0
mp-4366,Na2PtC2,0.3662000000000001,0
mp-707774,Mg3B2H9SO13F,0.6781999999999999,0
mp-4452,Cd(GaS2)2,2.1141000000000005,0
mp-753627,LiTiP2O7,0.10190000000000055,0
mp-772040,SbH(OF3)2,1.8319,0
mp-545619,HgO,0.0,0
mp-626528,NbHO3,2.5186,0
mp-30820,Li2AlRh,0.0,0
mp-30555,TaGaCo2,0.0,0
mp-14367,AsPO5,2.0017,0
mp-570456,Eu(CoAs)2,0.0,0
mp-7437,KZnP,0.8395999999999999,0
mp-20656,DyMn12,0.0,0
mp-32502,LiV(PO3)4,2.2154,0
mp-605867,CeIn7Pt2,0.0,0
mp-866711,FeSCl7,0.6743000000000001,0
mp-2659,LiN3,3.6364,0
mp-982010,Pr2CdAg,0.0,0
mp-866870,Ca7Sn3S13,2.1028999999999995,0
mp-71,Yb,0.0,0
mp-15206,Ho2Si5Ni3,0.0,0
mp-19175,MnSe2O5,2.4927,0
mp-15588,Ce(BRu)2,0.0,0
mp-672376,Re2Cl7O3,0.31779999999999997,0
mp-777898,LiFeF4,3.5555,0
mp-18935,K2V(PO4)2,2.6958,0
mp-1020608,SiP2O7,4.942200000000001,0
mp-1044784,PrZn(WO3)2,1.2916999999999996,0
mp-979989,Yb2AgPd,0.0,0
mp-759874,LiCu(PO3)2,1.2797999999999998,0
mp-1041014,MgV2O4,1.0283999999999995,0
mp-978951,SmAl,0.0,0
mp-978695,SmFeP,0.10040000000000049,0
mp-20877,NbCoB2,0.0,0
mp-1019746,K2Ca4Si8O21,4.5791,0
mp-567970,Hf3(Al2C3)2,0.0,0
mp-558458,Mg3Si(O2F)2,5.0611,0
mp-722271,H14RuS2(N2O3)2,2.4349,0
mp-20109,Th2NiB10,0.0,0
mp-1028597,Te2MoWSe2,0.026100000000000012,0
mp-975110,RbMg3,0.0,0
mp-38152,Sr(SmSe2)2,1.7782999999999998,0
mp-782638,Fe3(O2F)2,0.0,0
mp-555816,KDy(SeO4)2,3.4722,0
mp-733853,K2HI2ClO6,3.0513,0
mp-23225,BBr3,3.8273,0
mp-8375,Th(SiTc)2,0.0,0
mp-1042928,Fe2(MoO4)3,2.4279,0
mp-16763,KYTe2,1.3029000000000002,0
mp-17741,Sm2ReO5,0.7924999999999995,0
mp-35208,NdOF,5.2617,0
mp-754696,PrTiO3,0.0,0
mp-561448,Na4Ce(As2O7)2,1.5515,0
mp-541381,Pu(SiAu)2,0.0,0
mp-7422,Ca(CuP)2,0.0,0
mp-34493,Mg(FeO2)2,0.9676999999999998,0
mp-18609,K2Se5,0.9322999999999999,0
mp-556125,Na2BHO3,3.8045999999999998,0
mp-772861,BaSr2I6,3.2767,0
mp-720849,Na2H6PtC4N4O3,2.4515000000000002,0
mp-22775,Sr(Sb3Ru)4,0.0,0
mp-1018142,NbN,0.0,0
mp-29119,Ho5(Ge5Ir2)2,0.0,0
mp-777557,TiFe3Sn2(PO4)6,0.09609999999999985,0
mp-667400,Ir3(CO)8,1.7147999999999999,0