mp_id,formula,band_gap,fidelity
mp-558170,Rb3PO4,3.6647999999999996,0
mp-9622,Tl4SnS3,0.6793999999999993,0
mp-22392,SmCuSeF,0.0,0
mp-11152,SiSbPt,0.2099000000000002,0
mp-10208,NiMoP2,0.0,0
mp-23386,Sn2SI2,1.6146000000000003,0
mp-569722,CdI2,2.3911999999999995,0
mp-40668,NaCoP2HO7,3.0988000000000007,0
mp-672705,YbS2,1.2066999999999997,0
mp-1993,Tm5Mg24,0.0,0
mp-552185,AgNO3,1.8539,0
mp-864616,ICl2,0.0,0
mp-571454,LiAgC2,1.4489999999999998,0
mp-30313,Tb2Se2O7,3.2198999999999995,0
mp-760799,LiCu3F10,0.0,0
mp-22639,U(NiP)2,0.0,0
mp-505630,Ta2Cr4Si5,0.0,0
mp-743651,MnP2H4O5,0.432,0
mp-1016154,MgMnO2,1.2435,0
mp-773024,LiCa2Nb3O10,2.0086000000000004,0
mp-767440,Li2MnFe2(PO4)3,1.5432000000000001,0
mp-669498,K2Pt(NO2)4,1.9671,0
mp-1654,CeNi2,0.0,0
mp-616512,Y3Co2,0.0,0
mp-30374,DyInAu2,0.0,0
mp-865781,YbCeZn2,0.0,0
mp-669555,KC(NO2)3,1.7084,0
mp-999507,MnSn,0.0,0
mp-689981,MnPO4,0.0,0
mp-22440,LuSiIr,0.0,0
mp-774412,LiCr(PO3)3,3.3285,0
mp-1019713,Cs4Si3O8,3.6580000000000004,0
mp-561350,AlBiSCl4,2.8305,0
mp-560340,La2Pd2O5,1.1382000000000003,0
mp-11178,SrCeN2,1.2207999999999997,0
mp-23085,Ba2Cu3(ClO2)2,0.0,0
mp-430,TiO2,2.2392999999999996,0
mp-34439,Tb10Ti6O27,2.6132999999999997,0
mp-777895,MnCr2Ni3(PO4)6,0.0,0
mp-560188,Ba4NaAuO8,1.3961999999999999,0
mp-755003,LaBiO3,2.6285,0
mp-3382,CaSiO3,3.5145999999999997,0
mp-756400,NdBiO4,0.5653000000000001,0
mp-401,Sc2S3,0.6433000000000004,0
mp-1018079,CrGaP2,0.0,0
mp-1041683,TiZnP2O7,0.0,0
mp-1047646,Ca(MoO2)2,1.3125999999999998,0
mp-734944,CoH2(SN)4,0.0,0
mp-1043339,CaNi2O5,0.0,0
mp-758270,Li3Ti(PO4)2,0.21030000000000015,0
mp-720869,H12C4N2O9,3.2245,0
mp-41795,LiAlPO4F,5.9117999999999995,0
mp-541566,K2MgB12(H2O3)10,5.5415,0
mp-752434,Gd3YO6,3.1017,0
mp-770678,Li2Cr2O7,2.4367,0
mp-757639,LiTi(PO3)4,0.1655000000000002,0
mp-557844,KMg4(PO4)3,4.9852,0
mp-1042514,Zn2Sn3O8,1.2476000000000003,0
mp-1048637,Sr3CaCo2S2O5,0.0,0
mp-642458,CeIn4Pd,0.0,0
mp-7186,NdAl3Ni2,0.0,0
mp-23071,CCl3F,4.8988,0
mp-567645,Ag2H12C6N3Cl,3.4853,0
mp-1017515,Mn2CoAs,0.0,0
mp-625920,Ta2H4O7,0.18070000000000008,0
mp-753413,Ba2B2O5,3.8041,0
mp-769606,LiZn4Fe13O24,1.4142000000000001,0
mp-21357,U2Fe2Sn,0.0,0
mp-149,Si,0.6118999999999994,0
mp-1802,NbS2,0.0,0
mp-973585,LuIO,3.2624,0
mp-4602,Tb2Ti2O7,2.7256,0
mp-19174,BaMnV2(AgO4)2,2.3708,0
mp-1019271,TaN2,0.0,0
mp-31127,Sr3P4O13,5.2118,0
mp-867156,ScGaRu2,0.0,0
mp-561303,NaSb(PS3)2,2.1465,0
mp-23222,Li3Bi,0.34289999999999976,0
mp-756048,TbErO3,4.5065,0
mp-30621,DySi2Rh3,0.0,0
mp-16644,PrMgPt,0.0,0
mp-17662,Lu2PdO4,0.5854000000000004,0
mp-19188,Ba3Mn2O8,1.5797,0
mp-763934,Mn3OF5,0.8089999999999999,0
mp-759560,LiTi6O12,0.0,0
mp-1335,VFe,0.0,0
mp-6126,LiCdBO3,2.1155999999999997,0
mp-640551,Ba4Si23,0.0,0
mp-559613,K6Se2O9,1.6318000000000001,0
mp-37233,Nd2CdS4,1.6895999999999995,0
mp-18209,Pr2(ZnGe2)3,0.0,0
mp-556060,NdTeBrO3,0.3353999999999999,0
mp-545847,LuBi2BrO4,1.3984000000000005,0
mp-32529,V3(PO4)4,0.7507000000000001,0
mp-676935,Cr10Sb3Te7,0.0,0
mp-1046494,Ba2Ca2Mn3Tl2O10,0.0,0
mp-8985,Ba2YC2(O2F)3,5.263999999999999,0
mp-707485,K4Cu3As4(HO8)2,0.5323,0
mp-23056,Sr2BrN,1.8455,0
mp-19920,Ce3Ga,0.0,0
mp-8469,Li8IrO6,0.0,0
mp-758094,Ce6Y2O15,1.8196999999999992,0
mp-8713,K2MnS2,0.9732999999999998,0
mp-6127,BaCu(Si2O5)2,0.8549000000000002,0
mp-672213,Eu(AsPd)2,0.0,0
mp-570855,SmAgPb,0.0,0
mp-975387,RbBaO3,0.0,0
mp-1034,Th2Cu,0.0,0
mp-769364,Dy(BiO2)3,2.0037,0
mp-867166,PuO2,0.0,0
mp-866100,Er2CuOs,0.0,0
mp-864915,HfBr3,0.0,0
mp-541628,CsTeF5,4.6238,0
mp-981385,Sc3P,0.0,0
mp-8963,Cs2HgF4,2.0818,0
mp-684017,Y2Te4O11,3.2952,0
mp-915,YCd,0.0,0
mp-10669,Ba3(AlGe)2,0.0,0
mp-1159,Zr2Fe,0.0,0
mp-15543,NaLiZr(Si2O5)3,5.202999999999999,0
mp-545488,SiO2,0.30210000000000026,0
mp-22170,Li4PbO4,1.4367,0
mp-30196,ErCuP2,0.0,0
mp-776966,Sn2N2O,0.10289999999999999,0
mp-9037,CsPrS2,2.2298,0
mp-1048486,BaNi4O7,0.9855999999999998,0
mp-559142,KLi(PO3)2,5.2914,0
mp-733508,SmH5(SeO4)2,4.432,0
mp-761118,Ti7Sn3O20,1.5248999999999997,0
mp-572970,WSCl4,1.969,0
mp-775181,Mn3Nb(PO4)6,0.0,0
mp-1044530,PrMg(MoO3)2,1.1494,0
mp-559043,KLaGeS4,2.3035999999999994,0
mp-1868,VS,0.0,0
mp-850743,Li8MnFe7(BO3)8,3.1002,0
mp-760377,Li2Nb(PO4)2,0.0,0
mp-974667,Rb2H2C2O5,3.4116999999999997,0
mp-770961,Li2TiMn2O5,0.6734,0
mp-2062,LaSi2,0.0,0
mp-571547,Te2Au,0.0,0
mp-643841,KV2P2H4O13,0.5438000000000001,0
mp-30746,YIr,0.0,0
mp-559256,La4S3NCl3,2.9165,0
mp-559376,Na2CaPO4F,4.7508,0
mp-23146,TlZnSClO4,4.357100000000001,0
mp-776644,Ti3Mn3(SnO8)2,1.2040000000000002,0
mp-1031661,KRbMg6O7,0.0,0
mp-12317,SrCN2,3.2055999999999996,0
mp-27361,Nb(SeCl)2,0.984,0
mp-554903,TbSeClO3,4.3781,0
mp-23426,Al4Bi2O9,2.7529000000000003,0
mp-753123,Li2CuF4,0.254,0
mp-1048549,Ba2Ca3Mn4Tl2O12,0.0,0
mp-29754,SrLiN,0.2574000000000001,0
mp-676108,Gd8Zr7O26,2.1885,0
mp-14651,Zr2AgPdF11,0.5633,0
mp-675633,Ag4AuS2,0.0,0
mp-753809,BaCaI4,3.7974000000000006,0
mp-1047238,Sr2Y2W2O7,0.21989999999999998,0
mp-13270,CaAg2,0.0,0
mp-8937,CrSi2,0.0,0
mp-768409,TbTiO3,0.0,0
mp-752918,NaTi6O12,0.0,0
mp-753726,TbCeO4,0.0,0
mp-32654,Sc2Te3,0.0,0
mp-16903,SrSbF5,4.7617,0
mp-669,ThAl2,0.0,0
mp-771640,BaSrI4,3.4688,0
mp-27148,BeP2,0.8314000000000004,0
mp-972639,SmDyIr2,0.0,0
mp-972607,SmHo3,0.0,0
mp-768166,Dy(ClO4)3,5.7623,0
mp-6109,CaTiSiO5,3.0020999999999995,0
mp-1025578,Te2W3(SeS)2,0.0,0
mp-583800,Zr2Cu,0.0,0
mp-558373,PrNb3O9,2.8484999999999996,0
mp-772749,Ti17(NO4)6,0.0051000000000005485,0
mp-674842,Er2Zr2O7,2.8423000000000003,0
mp-1018718,HfTa2N3,0.0,0
mp-3824,Ta9(NiS3)2,0.0,0
mp-560431,KBe(PO3)3,5.558199999999999,0
mp-1045602,YCu3(SbO3)4,0.0,0
mp-540822,Cs3Zr2I9,0.39559999999999995,0
mp-865067,Li2EuGe,0.0,0
mp-861898,Rb3GePSe7,1.5629,0
mp-328,Zr2Ni,0.0,0
mp-27896,BF3,8.132,0
mp-11497,TbMg2,0.0,0
mp-10350,BaNdCuBO5,0.0,0
mp-766302,Ba5Nb5O14,0.0,0
mp-754555,HoTlO2,1.4284000000000003,0
mp-766118,BiP2O7,0.02429999999999999,0
mp-555078,Ba3SrSb2O9,3.1353,0
mp-560553,IrF6,0.7656000000000001,0
mp-1019782,K2LiB(PO4)2,5.3944,0
mp-27748,Be(B3H7)2,4.2788,0
mp-780722,Y6N2O5,0.0,0
mp-686040,MgU2O6,0.0,0
mp-557259,MoF6,4.1644000000000005,0
mp-631674,LaRe2Ag,0.0,0
mp-762326,Li2CuF5,0.5465,0
mp-10154,MnSbIr,0.0,0
mp-555137,K3SbN3(O3F)3,3.0785,0
mp-699464,Ca3Be2Si3(HO6)2,5.0047,0
mp-780886,Mn3Cr3(CoO8)2,0.0,0
mp-652337,Fe3Te2(CO)9,1.7140999999999997,0
mp-975933,NdHoIn2,0.0,0
mp-684010,K8Ti5P2(O4F11)2,3.1144,0
mp-8810,SrZn2(PO4)2,3.9629000000000003,0
mp-680550,ZnP2,0.0,0
mp-12487,CsDyCdTe3,1.5476,0
mp-983126,HoTmZn2,0.0,0
mp-1044293,V3ZnO7,2.0684000000000005,0
mp-779894,Fe6O7F5,0.0,0
mp-721813,AlH18CS2N3O14,5.2842,0
mp-20246,Mn4Ge6Ir7,0.0,0
mp-18148,K3TaS4,2.7558000000000002,0
mp-758658,CaAl2(SiO4)2,4.8122,0
mp-25317,Li3(CuO2)2,0.0,0
mp-1018724,HoCuSn,0.0,0
mp-504727,EuBrO,0.0,0
mp-977535,ErAlAg2,0.0,0
mp-29309,Si2H6S,4.4871,0
mp-9304,DyCuSeO,1.1804000000000006,0
mp-30761,Li7Pb2,0.0,0
mp-9239,NaLaMgTeO6,2.5432000000000006,0
mp-560789,SbI(ClF3)2,1.8658,0
mp-675802,Y4Zr3O12,4.1171,0
mp-28405,S(ClO)2,3.6538,0
mp-775539,K11Mn4O16,0.0,0
mp-505286,Rb2NaFe(CN)6,0.0,0
mp-767719,Li4Ti2Mn3Ni3O16,0.014699999999999935,0
mp-973875,Ga3Ge,0.0,0
mp-775868,NbFe3(PO4)6,0.0,0
mp-5318,MnCoSb,0.0,0
mp-20538,HoMgIn,0.0,0
mp-1046153,SrMgCu(PO4)2,0.6575000000000002,0
mp-753388,Li2Cu2F5,0.0,0
mp-627684,VHO3,0.3165000000000001,0
mp-690772,V5S8,0.0,0
mp-3284,CeSi2Pt,0.0,0
mp-541338,AlPO4,5.6739999999999995,0
mp-540420,LiFe2(PO4)3,0.08079999999999998,0
mp-850086,Ni3S2,0.0,0
mp-638236,OsC4(ClO2)2,2.8287000000000004,0
mp-1049264,CaV2(PO4)2,2.0147000000000004,0
mp-2773,BeCo,0.0,0
mp-977433,ErMgZn2,0.0,0
mp-542777,CePt5,0.0,0
mp-29591,Sb3ClO4,2.6768000000000005,0
mp-759312,MgSiH12(OF)6,5.6666,0
mp-31447,TbAgPb,0.0,0
mp-555359,KMnF3,2.7802,0
mp-552234,SrBiBrO2,3.1575999999999995,0
mp-3456,Tb(CuSi)2,0.0,0
mp-569815,Si2Ru,0.4067000000000007,0
mp-28548,Li8GeO6,3.4877000000000002,0
mp-760811,Li5Cu3F14,0.31509999999999994,0
mp-4210,Sm2CuO4,0.0,0
mp-540550,NaH2ClO5,5.2933,0
mp-1107,Th7Rh3,0.0,0
mp-779064,Li4FeOF5,3.0088,0
mp-772004,Li3Co3TeO8,0.7909000000000002,0
mp-16915,BaTiOF4,3.3400000000000003,0
mp-18142,Ca(Al5Cr)2,0.0,0
mp-570179,TbAu2,0.0,0
mp-723109,BeH14(I2O9)2,3.3177000000000003,0
mp-1019514,AlPO4,5.4686,0
mp-22174,Zr3NiSb7,0.0,0
mp-2676,TaBe2,0.0,0
mp-644265,CdH2(CO2)2,4.2202,0
mp-695439,RbTiPO5,2.3171000000000004,0
mp-707290,Nb10Pb14O39,2.1847,0
mp-867833,LaMgHg2,0.0,0
mp-695829,RbHSeO4,3.6169000000000002,0
mp-769802,Ba2Zr7O16,3.7062,0
mp-977462,ZrCdAu2,0.0,0
mp-1047736,Ca(CoO2)2,1.1339000000000001,0
mp-8484,ZnO2,2.1271999999999998,0
mp-8079,B5W2,0.0,0
mp-558144,CuH10(CO4)2,0.0,0
mp-708965,H8C3(NO)4,3.3613999999999997,0
mp-561536,NaMgBO3,3.5852,0
mp-555986,AsCS3N2F11,3.2632000000000003,0
mp-13914,LiCo2Ge,0.0,0
mp-9399,SmTe3,0.0,0
mp-7794,KSnS2,0.0,0
mp-17418,SmSnF7,4.9483999999999995,0
mp-2926,Pr2MgNi2,0.0,0
mp-540584,K2PdO2,1.3697,0
mp-1001016,Sc2ZnSe4,0.13960000000000017,0
mp-735603,CaH16C4N8(ClO2)2,1.0128000000000001,0
mp-6227,Ca2ZnSi2O7,4.0553,0
mp-28746,Pr3RuI3,0.02059999999999995,0
mp-510133,Sc(Fe2P)2,0.0,0
mp-9592,Yb(MnAs)2,0.0,0
mp-698084,H4NClO4,5.2585,0
mp-720739,ZnP2H6O5,4.7801,0
mp-559878,K2Na2IrO4,0.33850000000000025,0
mp-771089,Li4MnFe5O12,0.26380000000000003,0
mp-777480,Li2Ti3MnO8,1.4421999999999997,0
mp-5446,Li2PrO3,0.0,0
mp-5659,Ti3SiC2,0.0,0
mp-34591,NbFeO4,2.1631000000000005,0
mp-18099,BaSbF5,4.7525,0
mp-30182,ThAl3Ni2,0.0,0
mp-768636,LiBi2BO5,1.7318000000000007,0
mp-10481,RbAg3Te2,0.27939999999999987,0
mp-1047842,Ba(MoO2)4,0.0,0
mp-18731,Fe3O4,0.5828999999999995,0
mp-756660,Li4Ti3NbO8,0.0,0
mp-12386,ErSi3Ni,0.0,0
mp-982873,Na3Tl,0.0,0
mp-35482,Ti(FeO2)4,1.1061999999999999,0
mp-17697,KSmF4,7.1568,0
mp-17143,BaGd2O4,2.7986000000000004,0
mp-15050,Pr(PdO2)2,0.0,0
mp-625661,H9BrO4,4.3502,0
mp-1019560,Ca2B2O5,4.7085,0
mp-20591,Yb2InGe2,0.0,0
mp-7774,Na2SbAu,0.36970000000000036,0
mp-22442,Ba2NaOsO6,0.0,0
mp-23893,H5BrNO,4.3535,0
mp-758430,LiCuPO4,0.0,0
mp-1027176,Te4MoW3(SeS)2,0.18030000000000035,0
mp-569565,La3(CrN3)2,0.0,0
mp-7542,GeP3,0.0,0
mp-40478,NaDy3Ti2(SbO7)2,2.4818,0
mp-867613,LiTi4O8,0.0,0
mp-28013,MnI2,1.1707,0
mp-556719,K2Ti(SiO3)3,3.3701,0
mp-764941,Li3Fe8(BO3)8,1.5204999999999997,0
mp-4666,CdSiP2,1.4259000000000004,0
mp-24714,ZnH4(CO3)2,3.1831,0
mp-28410,ThP7,0.0,0
mp-1044208,Mg(MoO2)4,0.0,0
mp-7949,Rb2GeF6,5.796,0
mp-5513,Tl3VS4,1.9533,0
mp-22375,In2S3,0.28000000000000025,0
mp-1042925,CaVAs2O7,2.2981,0
mp-3222,La3RuO7,0.0,0
mp-568937,Cs3Y2Br9,4.0443999999999996,0
mp-756040,Gd2HgO4,1.9117,0
mp-530933,Li5P2N5,3.4494,0
mp-1030353,Te3MoWS,0.0,0
mp-30709,La2Zn17,0.0,0
mp-18279,Zr2CuGe4,0.0,0
mp-22811,InCuSe2,0.0045999999999999375,0
mp-778242,Ti2Fe(PO4)3,0.17049999999999965,0
mp-3519,ZrSO,2.4196999999999997,0
mp-772074,Sr3LaI9,2.1769000000000003,0
mp-763274,Mn3(O2F)2,0.0,0
mp-760084,Cu8O7,0.0,0
mp-27167,Sn2IF3,2.4355999999999995,0
mp-28858,Na2HgS2,2.1799,0
mp-3698,SrAlSi,0.0,0
mp-9418,Eu(CuO2)2,0.0,0
mp-559029,RbC2S2N(OF)4,4.8612,0
mp-866157,TiGaRh2,0.0,0
mp-11613,Ba2CuSi2O7,0.17859999999999987,0
mp-28511,Zr2P,0.0,0
mp-292,V3As,0.0,0
mp-989582,Ca6Pb2SeN,0.0,0
mp-554606,Cu7As6(PbO12)2,0.21329999999999982,0
mp-709039,ZnH2(CO2)2,4.3891,0
mp-776041,V2O5,2.08,0
mp-779424,Gd3TaO7,2.7834000000000003,0
mp-9563,Li2Sb,0.0,0
mp-720856,KCa(H2N)3,2.1993,0
mp-282,TiF2,0.45179999999999954,0
mp-554423,Y(PO3)3,5.688899999999999,0
mp-15572,Na3Ca3AlAs4,0.9449000000000001,0
mp-772566,Ho2(WO4)3,4.7214,0
mp-772919,Tm4(B2O5)3,5.683299999999999,0
mp-30432,Ba(RhPb2)3,0.0,0
mp-541148,KUVO6,1.9806,0
mp-769656,Ba2Ce2O5,0.0,0
mp-972396,Ti2MnRe,0.0,0
mp-622197,Cs2PtS6(O3F)6,2.1952,0
mp-10622,PrAs,0.0,0
mp-1041947,Mg(WO2)2,0.3282999999999996,0
mp-541750,CsS2N(O2F)2,5.4829,0
mp-20360,PuIn3,0.0,0
mp-18147,LiGaSiO4,4.0502,0
mp-12762,PrB6,0.0,0
mp-561827,Cs3TlF6,3.3218,0
mp-625996,NaHO,2.9316999999999998,0
mp-638765,Al2O3,0.6822999999999997,0
mp-1044001,LaMgFeMoO6,1.2386999999999997,0
mp-10700,MgNi3C,0.0,0
mp-568971,Ag2Se,0.9678,0
mp-22592,CaTi4(CuO4)3,0.0,0
mp-639138,EuSeClO3,0.0,0
mp-698491,NaCa2Al4H8C4ClO20,5.1711,0
mp-5575,GdTaO4,3.2685999999999997,0
mp-681150,Pu5Rh3,0.0,0
mp-570117,ErTlSe2,2.1451000000000002,0
mp-30795,Na2Tl,0.0,0
mp-1048584,Ba2Tl2Zn3(FeO3)4,0.0,0
mp-776060,MnCr2Fe3(PO4)6,0.0,0
mp-697764,LiFeP2O7,2.4905999999999997,0
mp-14552,Ba2SrUO6,2.2434,0
mp-767625,LiVF4,2.2786,0
mp-585400,LiFePO4,2.4496,0
mp-684021,Sn4Sb6S13,0.6013999999999999,0
mp-3679,NiSbS,0.0,0
mp-20496,Ga2PbO4,3.4441000000000006,0
mp-1046617,Sr2MnSO3,0.0,0
mp-31416,Ho3TaO7,3.4507,0
mp-559929,Ba3Ta6Si4O23,0.0,0
mp-989587,K2SBrCl6,0.0,0
mp-674942,Na3N2O9,0.0,0
mp-1040876,CaMo2P2O9,2.7485000000000004,0
mp-759673,LiBiP2O7,4.1874,0
mp-27436,PaCl5,2.4189,0
mp-9272,TlPt2S3,1.0242000000000004,0
mp-31368,KClO2,2.3095,0
mp-772087,Er3Sb5O12,3.1169000000000002,0
mp-573281,KNa3Al4(GeO4)4,3.3229000000000006,0
mp-559274,Ba21Ge2O5,0.0,0
mp-864888,Dy2Mg,0.0,0
mp-30531,Ta2Se8I,0.0,0
mp-20849,Pd3Pb,0.0,0
mp-772755,Li3CuPCO7,0.15739999999999998,0
mp-8187,K2ZnO2,1.9785000000000001,0
mp-9928,CaRhF6,0.0,0
mp-558374,SiO2,5.5665000000000004,0
mp-631404,CrIrRu,0.0,0
mp-978840,SrLi2(SiN2)2,3.436,0
mp-781593,Li4Co5Te3O16,0.0,0
mp-1048544,BaAlCr4O7,0.0,0
mp-23230,PCl3,4.0342,0
mp-31191,Sc3Co2Ge3,0.0,0
mp-642803,Zr2HBr2,0.0,0
mp-1047167,Sr2YCo2O7,0.0,0
mp-568544,CsCdCl3,1.7462,0
mp-9416,La(CuO2)2,0.0,0
mp-28733,Sc3C4,0.0,0
mp-3142,Ca(NO3)2,3.6222,0
mp-770448,La2Ti3O9,2.6214999999999997,0
mp-971901,ZnPb3,0.0,0
mp-18084,BaTb2ZnO5,3.0505999999999998,0
mp-16998,Ba2Nb6Te2O21,2.1563,0
mp-995201,Ti5Si3C,0.0,0
mp-2693,SnSe,0.1189,0
mp-2197,BaHg,0.0,0
mp-864824,LiTbAu2,0.0,0
mp-11101,LuInRh,0.0,0
mp-722294,Nb3Zn3N,0.0,0
mp-865925,LiZrIr2,0.0,0
mp-978919,Ba3Tb,0.0,0
mp-2129,NdGe2,0.0,0
mp-1009652,RhC,0.0,0
mp-761602,Li3Fe(CoO3)2,0.5338000000000003,0
mp-1028686,W2Se3S,0.6281999999999999,0
mp-1008786,MgTe,0.43430000000000035,0
mp-12434,Ho2InGe2,0.0,0
mp-24237,ScH2,0.0,0
mp-1908,Pr5Ge4,0.0,0
mp-1020797,Y(PO3)3,5.6193,0
mp-772664,Na2CoAsCO7,0.8344999999999999,0
mp-683952,SiO2,1.3132000000000001,0
mp-12719,LiNdSn,0.0,0
mp-20214,UGa3,0.0,0
mp-1018851,OsN2,0.0,0
mp-1046608,Sr3Co2S2O5,0.0,0
mp-570431,AgTe3I,1.0025,0
mp-972971,LaTlHg2,0.0,0
mp-499,AgO,0.0,0
mp-767269,Ga7(Fe3O8)3,2.0330000000000004,0
mp-1020117,MgSiO3,4.5456,0
mp-3574,MnAlCu2,0.0,0
mp-6633,NaCSN,4.1761,0
mp-540072,Fe(PO3)4,0.0,0
mp-622086,La2GeS5,1.9676,0
mp-599,TiTe,0.0,0
mp-1002228,PtC,0.0,0
mp-27376,Rb6Si10O23,4.3121,0
mp-557689,CaAl2B2O7,4.8231,0
mp-570983,Sr4Sn2Se9,0.7298,0
mp-763002,Fe4O3F5,1.2359000000000002,0
mp-18515,NaGdSiO4,3.2325,0
mp-615682,Ba2LaTa(CuO4)2,0.0,0
mp-16497,ScAlCu2,0.0,0
mp-758934,Dy3Co29(Si2B5)2,0.0,0
mp-1042259,Ca2TiNb2O8,0.0472999999999999,0
mp-865194,TmF3,5.3727,0
mp-777235,V5CuO12,0.4964000000000002,0
mp-510036,Fe2Cu(P2O7)2,0.7737,0
mp-29783,B5H9,5.9591,0
mp-632623,MnIn2W,0.0,0
mp-877,Er2In,0.0,0
mp-1008661,AuC,0.0,0
mp-771398,Li3Fe3CuO8,0.0,0
mp-1019809,KBe2B3O7,4.949,0
mp-21890,NdCoSi,0.0,0
mp-20134,KCN,5.021599999999999,0
mp-28641,ThB2O5,4.8186,0
mp-573376,Lu2CCl2,1.0343999999999998,0
mp-1019080,ReN2,0.0,0
mp-776726,LiV2F7,1.7058,0
mp-999484,YTi,0.0,0
mp-10453,Lu(SiRu)2,0.0,0
mp-567692,Y3Ni4B4C3,0.0,0
mp-540996,NdGeBO5,3.9922,0
mp-13363,SiPt3,0.0,0
mp-556996,K2LiAlF6,7.2639,0
mp-1564,NaTl,0.0,0
mp-571,TiNi,0.0,0
mp-976726,LiDyO2,4.5644,0
mp-644223,LiBH4,6.685499999999999,0
mp-22984,NaBiO2,1.1350000000000002,0
mp-22868,BiRh,0.0,0
mp-761036,CdSeO4,1.6838,0
mp-756354,SrSc2O4,2.7653,0
mp-27424,BaCu4S3,0.03790000000000049,0
mp-618309,Bi2AuO5,0.0,0
mp-9953,HfP,0.0,0
mp-1047051,Ti3Zn(P2O7)2,0.0,0
mp-973283,HoLuAg2,0.0,0
mp-28005,As2(SO4)3,4.5714,0
mp-760417,Rb4I2O,0.8507,0
mp-8422,Sr(AlSe2)2,2.9755,0
mp-9405,K3SeO4F,3.8658,0
mp-10052,TiAs,0.0,0
mp-686602,CaPr2Ti2ZnO9,2.4402,0
mp-571061,Nb3Se10Cl3,1.0930000000000002,0
mp-9498,Nd2C(NO)2,3.7725,0
mp-715457,V4O7,0.36830000000000007,0
mp-1046475,Ba2Ca2Tl2Fe3O10,0.0,0
mp-28743,K4Cu8Te11,0.0,0
mp-975427,RbAlO3,0.0,0
mp-783906,Mn2O3F,0.0,0
mp-772584,Ti5V(PO4)6,0.0,0
mp-5197,ErB2Ir3,0.0,0
mp-604496,CeSiHRu,0.0,0
mp-672360,Gd(C2N3)3,2.0221,0
mp-14636,Rb2NbAgS4,2.1626000000000003,0
mp-1046139,Ba2Mg2Ti3Tl2O10,0.0,0
mp-1045759,Ti5O7,0.0,0
mp-760060,Sb(SO4)2,0.0,0
mp-997043,PbAuO2,0.0,0
mp-1738,SmAs,0.0,0
mp-22483,NaInTe2,0.6388999999999996,0
mp-24091,GaH4NF4,5.1596,0
mp-510382,Fe3PtN,0.0,0
mp-28002,Rb3Mn2Br7,1.1275,0
mp-568924,PrB2Rh2C,0.0,0
mp-760359,NaTi6O12,0.0,0
mp-570568,W2NCl8,0.1574000000000001,0
mp-766877,Si6Bi9O26,0.0,0
mp-554266,Ba3SrIr2O9,0.0,0
mp-1045487,Mn2AlS4,0.0,0
mp-555837,Rb6Si10O23,4.2187,0
mp-865300,Tm2AgIr,0.0,0
mp-1019742,HeSiO2,6.5469,0
mp-1043918,Ti3ZnO7,2.9147,0
mp-865262,TmTaRu2,0.0,0
mp-1020193,KNO3,2.8988,0
mp-624187,Y5Bi3,0.0,0
mp-24465,GaP3(HO5)2,4.9811,0
mp-709549,SbTe6H12C4N(OF5)6,2.5999,0
mp-865415,YbTmPt2,0.0,0
mp-560014,Pr3CuSnS7,1.7713999999999999,0
mp-777667,LiV2O5,1.6281999999999999,0
mp-542654,RbIn3S5,1.1735000000000002,0
mp-1018628,ScPt3C,0.0,0
mp-2644,CoSb,0.0,0
mp-23487,KIO3,2.7768000000000006,0
mp-586092,Li3Fe5O8,0.2833999999999999,0
mp-764484,LiMnV(P2O7)2,1.3442000000000003,0
mp-676089,Fe2CoSe4,0.0,0
mp-567371,Sr3Li4(GeN3)2,2.0534,0
mp-10952,Cu2HgGeS4,0.0041999999999999815,0
mp-569084,H3AuC2NCl,3.8047,0
mp-13937,Sr2TbReO6,0.0,0
mp-771026,Na2BSbSO7,3.4585,0
mp-7777,Li2PrP2,0.0,0
mp-1799,TaCo2,0.0,0
mp-8672,La2PdO4,0.0,0
mp-644879,MgSiO3,4.5951,0
mp-753131,Li3Ti4O8,0.0,0
mp-1045498,Ca(NiS2)2,0.0,0
mp-756294,Li2Ti2O5,3.7434000000000003,0
mp-570423,Ba6Pr3I19,1.0197000000000003,0
mp-763003,LiMnF3,3.1237,0
mp-698419,ZnH6C2(NCl2)2,0.0,0
mp-756721,NaBi5O8,2.2792,0
mp-1508,LaS2,0.6312999999999995,0
mp-774415,Li2Cr3FeO8,0.0,0
mp-605694,NdH12S2NO12,5.1190999999999995,0
mp-1028768,Te4MoW3Se4,0.07240000000000002,0
mp-556515,AsSOF9,3.9252000000000002,0
mp-989592,Sr6Sn2NF,0.0,0
mp-22524,CeP2O7,1.5859,0
mp-10647,TlSe,0.0,0
mp-28341,LiGaCl4,4.4866,0
mp-985281,CsIr,0.0,0
mp-6698,Th2Cu(PO4)3,2.9243000000000006,0
mp-774586,Nb3Sb(PO4)6,1.1879000000000002,0
mp-769600,LiV2S2(O4F3)2,1.1396000000000002,0
mp-703393,PH8SN3O,3.4468,0
mp-27568,Ba10Al3Ge7,0.0,0
mp-720104,Na4Al3Ge3NO14,2.7976,0
mp-9848,PrP5,0.0,0
mp-3047,MgGeO3,2.4744,0
mp-777875,LiFeF4,3.5689,0
mp-757541,LiSiBiO4,3.1337999999999995,0
mp-32939,Fe7O8,0.0,0
mp-621132,PrInAu,0.0,0
mp-540686,CsPr(SO4)2,5.413600000000001,0
mp-1013830,NaCo3P3O13,0.0,0
mp-574122,UAl4,0.0,0
mp-574070,Cs4Pb9,0.8233000000000001,0
mp-18055,La2Ge5Rh3,0.0,0
mp-2385,TaCr2,0.0,0
mp-1042060,MgNiP2O7,3.4955000000000003,0
mp-29279,CuClF10,0.024700000000000166,0
mp-707536,KHSeO4,3.5239,0
mp-585388,Mn4(PO4)3,0.02499999999999991,0
mp-555940,Dy2Te5O13,2.9867,0
mp-600028,SiO2,5.5863,0
mp-1045475,YMn2O4,1.1057000000000001,0
mp-42036,Nd6Al7Si5N3O25,3.3797999999999995,0
mp-4520,Y(CuGe)2,0.0,0
mp-10126,V5SiB2,0.0,0
mp-1045742,Mg(WO3)2,1.1675000000000004,0
mp-1042037,MgFeP2O7,4.082,0
mp-979046,Tm2Co12P7,0.0,0
mp-2796,TmAg,0.0,0
mp-780528,Na6Cr2C4SO16,0.0,0
mp-559498,K9Bi5O13,1.0663999999999998,0
mp-771710,Li3Zr4(PO4)6,0.048199999999999577,0
mp-505601,Nb3Co3C,0.0,0
mp-568087,Bi,0.0,0
mp-703515,CaCuSiH2O5,0.12199999999999989,0
mp-865867,Li2YTl,0.0,0
mp-568668,DyFe2SiC,0.0,0
mp-1009720,RhN,0.0,0
mp-608594,CrWO4,0.0,0
mp-989632,LaOsN3,0.01839999999999975,0
mp-29239,LuB2Ru,0.0,0
mp-27824,PICl6,1.7713999999999999,0
mp-561236,Pb13(Cl3O5)2,1.8938000000000001,0
mp-562442,Cs2SeO4,3.8005999999999998,0
mp-775149,Ti(SO4)2,2.2226,0
mp-776220,Hf2N2O,2.2156000000000002,0
mp-29143,Na3VS4,1.4700999999999997,0
mp-113,Tc,0.0,0
mp-866062,HfSiRu2,0.17010000000000147,0
mp-758742,KY(H2N)4,2.6892,0
mp-555664,ZnS,2.0206999999999997,0
mp-557562,TiH8C4NO10,0.018899999999999917,0
mp-982778,Zn3Se,0.0,0
mp-10446,Sc6NiTe2,0.0,0
mp-765675,Na2Ni3O5,0.16169999999999973,0
mp-1027880,Te2Mo3W(SeS2)2,0.0,0
mp-1018118,TmSbPd,0.35689999999999955,0
mp-863264,TbI3,2.0929,0
mp-1030131,MoWSeS3,0.4556,0
mp-21945,Ge3Ru2,0.3814000000000002,0
mp-684861,NaYbTiNbO6F,0.0,0
mp-769575,Li6Co5(P2O7)4,2.9488,0
mp-18361,K7NbAs4,1.1294,0
mp-4322,Pr(CoB)2,0.0,0
mp-31972,Li3Mn(PO4)2,1.0943,0
mp-1008858,NdBiPd,0.1051000000000002,0
mp-34584,Zr4N2O5,2.3773999999999997,0
mp-861950,Ca2SbAu,0.19599999999999973,0
mp-8258,BaAl4S7,3.1571,0
mp-973557,FeAu3,0.0,0
mp-685145,BN,3.2495000000000003,0
mp-738612,ZnH16C3N8O7,4.7905,0
mp-555618,Na2MnF5,1.693,0