mp_id,formula,band_gap,fidelity
mp-706658,Mg3P2(H22O15)2,4.7868,0
mp-30789,U2Mo,0.0,0
mp-780863,Li4V2Fe3Cu3O16,0.0,0
mp-12084,Lu(CrSi)2,0.0,0
mp-775219,Cr3P6WO24,0.02259999999999998,0
mp-7128,Cd(AsO3)2,1.9253,0
mp-543032,NdH18C3S3(O2F)9,6.0476,0
mp-2851,VSb2,0.0,0
mp-541097,Zr3Pb(O2F3)2,2.8390000000000004,0
mp-22853,MoCl3,0.15079999999999982,0
mp-36383,Ag3(PO4)2,0.0,0
mp-24156,CuP2(HO)4,0.6392,0
mp-722310,KErHSe2O9,0.20720000000000005,0
mp-637771,ZrInNi4,0.0,0
mp-559558,Cu3P8(S2Cl)3,1.7878000000000003,0
mp-1047869,CaCr3P3O13,1.0737999999999999,0
mp-561074,H14RhC6NClO4,1.7589000000000001,0
mp-1028929,Te2Mo(WS2)3,0.04600000000000026,0
mp-21284,LiMnAs,0.0,0
mp-755883,NaDyO2,4.0169,0
mp-1045939,Ta2Zn2SnO8,2.465,0
mp-27431,Sn3BF9,4.3624,0
mp-559119,IN2O4F5,1.4645000000000001,0
mp-27440,ZrCl,0.0,0
mp-1045898,V9O13,0.0,0
mp-559093,Tl2BiP2S7,2.1261000000000005,0
mp-30360,TmAg3,0.0,0
mp-767605,Li2VF5,2.488,0
mp-2473,Re3As7,0.0,0
mp-754658,TeO3,1.2489,0
mp-1033715,CsHfMg6O7,0.0,0
mp-541190,Cs2LiVO4,3.9955,0
mp-975299,RbInO3,0.0,0
mp-3881,BaZnF4,4.5489,0
mp-972088,Zr3Zn,0.0,0
mp-1018733,IrN2,0.0,0
mp-28813,Si3CCl8,4.5168,0
mp-16035,Gd2TeO2,1.0708000000000002,0
mp-1046567,Ba2Tl2Mo3O10,0.0,0
mp-1001914,Li2SnIr,0.0,0
mp-1019786,K3Zn(BO2)5,4.2633,0
mp-764154,LiCo2OF3,2.0181,0
mp-21359,SbRh2,0.0,0
mp-1020666,Li4P2O7,2.8528000000000002,0
mp-28675,Ba2Nb15O32,0.0,0
mp-7941,Li6TeO6,2.798,0
mp-755435,Tl2Au,0.0,0
mp-768071,Li5Mn17(SiO16)2,0.3482000000000003,0
mp-22780,BaIn2Ir,0.0,0
mp-649195,CrC5SO7,2.2430000000000003,0
mp-622570,Ti2Cu3,0.0,0
mp-768257,Na4Bi2C4SO16,0.4246000000000003,0
mp-781495,Na2Co2O3,1.1591,0
mp-978102,Pr2Co12P7,0.0,0
mp-571188,Pr3Sn,0.0,0
mp-643378,CuH4Pb2(ClO2)2,0.1647000000000003,0
mp-27915,K2BeO2,2.9204,0
mp-3080,Ca5(Ga3O7)2,3.0724,0
mp-677244,Tb5(RuO6)2,0.0,0
mp-21644,BaNb8O14,0.20310000000000006,0
mp-752685,ZrBiO4,1.0659000000000005,0
mp-861672,Ti2FeIr,0.0,0
mp-540270,MoP2O7,1.2480000000000002,0
mp-799,V3S4,0.0,0
mp-647489,CdI2,2.355,0
mp-768110,Li2Ti3CoO8,2.4415999999999998,0
mp-28848,Ca2Bi2O5,2.4956999999999994,0
mp-19323,SmVO4,3.0043,0
mp-542096,CrPS4,0.6760000000000002,0
mp-555082,CsLi5(BO3)2,3.4975,0
mp-1047929,BaCaMoF7,4.6469,0
mp-28090,Si2H2S3,3.3542,0
mp-771713,Cr2(WO4)3,3.0068,0
mp-697671,Ba6Mg7H26,2.9720000000000004,0
mp-631374,TiTl2W,0.0,0
mp-979261,TiPd,0.0,0
mp-768556,Na3BSbPO7,3.5102,0
mp-866685,Er2(Ga3Co)3,0.0,0
mp-11537,NbAlRu2,0.0,0
mp-769809,Gd3TaO7,2.6138,0
mp-14100,Cd(RhO2)2,0.8366999999999996,0
mp-768122,NaBiPCO7,0.0,0
mp-7858,MgUO4,1.6931000000000003,0
mp-675084,Ca4Al3O10,0.0,0
mp-27473,Sb2TeF14,3.9650999999999996,0
mp-3021,Tl(FeSe)2,0.0,0
mp-705468,Li3Mn3(PO4)4,0.6397999999999999,0
mp-23772,TbAg3H6C6(N2O)3,2.5766999999999998,0
mp-779104,Rb4PbO4,1.5876,0
mp-754409,HoBO3,5.0979,0
mp-754668,Hf3N2O3,3.2508999999999997,0
mp-3158,Li2SbPt,0.0,0
mp-505366,AuBr,1.6885,0
mp-704125,Nd2Zr3(MoO4)9,3.4865,0
mp-631373,TiVW,0.0,0
mp-573316,CsPt2Se3,1.0491000000000001,0
mp-753403,LiCu2(CO3)2,0.0,0
mp-9107,NaZrCuS3,0.5438000000000001,0
mp-18196,Ba(TmTe2)2,0.7841,0
mp-850222,FeO2,0.0,0
mp-551900,PrBi2BrO4,1.2269000000000005,0
mp-697120,BH3NF4,7.5583,0
mp-676990,Ba7(Al3Te8)2,0.0,0
mp-557103,B5Pb2ClO9,3.4890000000000003,0
mp-1030327,Te6Mo3WSe2,0.2524999999999995,0
mp-863261,Sr2CdAs2,0.5215000000000001,0
mp-772157,Li4Ti5Nb3O16,0.0,0
mp-30851,Ti3Pt5,0.0,0
mp-17886,K2Al2Sb3,0.9634,0
mp-1022803,CoHCO4,0.16670000000000007,0
mp-776666,CrFe3Sn2(PO4)6,0.037799999999999834,0
mp-3545,CeMgSi2,0.0,0
mp-28668,B9H11N4,3.0055,0
mp-555293,NbS2,0.0,0
mp-677526,Rb2SeO4,3.6085000000000003,0
mp-12716,LiTlPd2,0.0,0
mp-558273,Ca3SiO5,3.2782999999999998,0
mp-554859,KGeAuS3,2.2108,0
mp-22673,MnInCu2,0.0,0
mp-2218,Er5Mg24,0.0,0
mp-774396,Li8Mn5Fe3(BO3)8,0.0,0
mp-2534,GaAs,0.18869999999999987,0
mp-631322,KSnOs,0.0,0
mp-603334,HC2,2.4614000000000003,0
mp-1046112,Ta2Zn2CrO8,1.3417000000000003,0
mp-5353,ErCo3B2,0.0,0
mp-778755,Li8MnFe7(BO3)8,3.1258,0
mp-561449,OsOF4,0.6713,0
mp-570544,Zr(SeCl6)2,2.8105,0
mp-776561,Na5Bi2As(CO4)4,0.3287,0
mp-27768,Co(BW)3,0.0,0
mp-1008285,Cr3Fe,0.0,0
mp-11359,Ga2Cu,0.0,0
mp-867148,LiHfRh2,0.0,0
mp-1048096,Ba2AlSn3O7,0.0,0
mp-754311,Mg(ReO4)2,3.9655000000000005,0
mp-706285,Na2H4PtC4Br2(N2O)2,1.7953000000000001,0
mp-558539,Cs2Ba2(CO3)3,4.3381,0
mp-34993,LiAlO2,4.504,0
mp-558886,K2Ce(NO3)6,1.3666,0
mp-1167,CF4,9.0612,0
mp-6573,CoAg3(CN)6,3.4249,0
mp-23431,CsCu2I3,1.9006000000000003,0
mp-707406,Rb6Te3P6(H13O20)2,3.47,0
mp-1513,Co9S8,0.0,0
mp-1041065,Zn(MoO2)2,1.0957999999999997,0
mp-23986,NaH6ClO5,3.0156,0
mp-556478,SrH2(CO2)2,4.6652,0
mp-1082,VIr3,0.0,0
mp-568386,Ag10Te4Br3,0.774,0
mp-7163,Tb,0.0,0
mp-1048042,Sr2AlGaCu2O7,0.011400000000000077,0
mp-22423,BaLa2CoS5,0.0,0
mp-764225,LiCo5O5F,0.0,0
mp-505105,Cu(HO)2,0.0,0
mp-10734,Ti4O5,0.0,0
mp-10419,Na4ReN3,2.4327,0
mp-573358,CsBSe3,1.7009999999999998,0
mp-32028,Mn(PO3)4,0.43579999999999997,0
mp-569423,Ga,0.0,0
mp-19343,Co4B6O13,2.8023999999999996,0
mp-557194,SiO2,0.0,0
mp-31465,Ho5Bi3,0.0,0
mp-6680,RbCa2Ta3O10,2.2015,0
mp-5328,CdPS3,1.7450999999999999,0
mp-24705,SrCaB5H2ClO10,4.962199999999999,0
mp-777779,Li4Mn(TeO4)3,0.4299999999999997,0
mp-973064,LaH3,0.47189999999999976,0
mp-8566,Ag,0.0,0
mp-15416,Rb2GaAs2,0.8526000000000002,0
mp-698164,Rb2B10H6O19,5.7894000000000005,0
mp-16770,Ca2Ag7,0.0,0
mp-19846,TlSbSe2,0.0,0
mp-757777,LiSiBi3O7,2.9754000000000005,0
mp-5660,BaIrO3,0.0,0
mp-28908,Ba5(RuO5)2,0.22809999999999997,0
mp-770549,Li4Cr3Cu3(TeO8)2,0.0,0
mp-580931,MgZn5,0.0,0
mp-5779,Sm3RuO7,0.0,0
mp-864676,Yb2AlGe3,0.0,0
mp-549697,RbGeIO6,2.4295,0
mp-849520,LiCo3(SiO4)2,0.0052000000000000934,0
mp-720859,VH11N3Cl5,0.0,0
mp-546810,Rb(CO)2,2.6755,0
mp-1047431,Zn(BiO2)2,0.8867000000000003,0
mp-622990,GaFe2Ni,0.0,0
mp-976254,Li3Mg,0.0,0
mp-647987,RbBiC4(SN)4,2.5595999999999997,0
mp-14289,Ba3P4,0.48150000000000004,0
mp-1018821,NdTlZn,0.0,0
mp-775438,V2OF5,1.552,0
mp-22413,FeCu2(CN)6,0.0,0
mp-23413,NbBiO4,2.9369,0
mp-571493,YbHgPb,0.0,0
mp-1042056,CaSi2NiO6,3.5985,0
mp-560105,K3Ho(SiO3)3,3.7625,0
mp-978974,SnRh3,0.0,0
mp-721958,K4P4(H2O5)3,5.1963,0
mp-867887,Sm2CuIr,0.0,0
mp-628715,KEuPSe4,0.054600000000000204,0
mp-771965,Sb2P4H3O16,0.0,0
mp-14836,Pr4Si2Se3O7,2.3921,0
mp-29667,Si2Ni3,0.0,0
mp-974740,NdBiO3,0.0,0
mp-976190,K3TlAu5,0.0,0
mp-570132,Mg8B5IN10,2.6847,0
mp-1028948,TeMoWSe2S,0.0,0
mp-605665,H24RuC8(S2Cl)2,2.3670999999999998,0
mp-770537,LiMn2O3,0.0,0
mp-559442,Ba2Ru7O18,0.0,0
mp-37449,Nd5AgS8,1.6121999999999996,0
mp-735596,K4Mo3H4O17,2.4421999999999997,0
mp-769001,Li6Sn2B4SO16,3.4699999999999998,0
mp-558964,S,2.5395999999999996,0
mp-5306,Nb4CrS8,0.0,0
mp-984049,CeYZn2,0.0,0
mp-623035,FeSbPt,0.0,0
mp-23457,PBr2N,3.0406,0
mp-7276,ScUS3,0.0,0
mp-29025,Li5Br2N,2.0781,0
mp-977445,Nd2ZnIr,0.0,0
mp-1027109,Mo3W(Se3S)2,0.7018,0
mp-866207,LuCdPd2,0.0,0
mp-651122,Mn3Bi(CO)15,1.7823,0
mp-20948,NbNiP2,0.0,0
mp-621945,La2Ge2O7,3.7144,0
mp-780510,LiMn3(BO3)3,0.28949999999999987,0
mp-684623,Zr10C9,0.0,0
mp-626879,V3(HO4)2,0.6535000000000001,0
mp-775264,Li4Ti2Co3O10,0.6943000000000001,0
mp-504935,K2PbO3,1.2287000000000003,0
mp-30792,NaPb,0.0,0
mp-699375,Co8As3O16,0.0,0
mp-754146,Rb3YO3,2.0568,0
mp-13276,SrLiP,1.3430999999999997,0
mp-27291,PaCl4,0.01580000000000048,0
mp-15746,Zr2Cr30P19,0.0,0
mp-685957,Pr3(ZnAs3)2,0.0,0
mp-699691,Mn7SbAsO12,0.0,0
mp-1028589,TeWSe,0.26629999999999976,0
mp-735567,VAs2H4O9,2.5663,0
mp-776575,BaTm2O4,3.838,0
mp-2588,YCo3,0.0,0
mp-2831,FePd,0.0,0
mp-1047496,Ca2YCoO5,0.6059999999999999,0
mp-556275,Rb2Al2Sb2O7,3.5936000000000003,0
mp-2908,Al2ZnO4,3.8457000000000003,0
mp-999543,MnCo3,0.0,0
mp-861533,Na2Li2CoO4,0.6292,0
mp-765501,Li2NiO2F,0.05439999999999978,0
mp-779973,Hf2N2O,2.0806999999999993,0
mp-555112,Li2CrF6,1.5229,0
mp-13141,HgTe,0.0,0
mp-768992,Li6Bi2O7,0.0043999999999999595,0
mp-7783,La(BC)2,0.0,0
mp-569225,Mo6PbI14,1.8429999999999995,0
mp-2677,ScPd3,0.0,0
mp-1006367,Ce2HfSe5,0.0,0
mp-669517,Pb(C2N3)2,3.6313999999999997,0
mp-553975,K3Na2InO4,1.9057,0
mp-13380,HoZnRh,0.0,0
mp-2538,Y5Si3,0.0,0
mp-8389,Na6ZnS4,2.1614000000000004,0
mp-1018679,DyTe2,0.0,0
mp-775198,Ti3P6WO24,2.5217,0
mp-570826,VSnRh2,0.0,0
mp-631424,ReW2Br,0.0,0
mp-558951,K2B6H2O11,5.364199999999999,0
mp-776661,NbV3O10,1.5159,0
mp-973906,LuGe2,0.0,0
mp-570287,Ta5Si3,0.0,0
mp-16728,ScP,0.0,0
mp-973734,Lu2InHg,0.0,0
mp-685767,Ta24Ti5Se48,0.0,0
mp-672346,RbVI3,0.6246,0
mp-556968,RbNa3SnO4,2.2514,0
mp-31205,Zr3Fe,0.0,0
mp-703376,UP3H7O8,2.3075,0
mp-1049288,CaHo(SbO3)2,0.0,0
mp-11631,Dy2Al6Si4Au,0.0,0
mp-2642,CdAg,0.0,0
mp-760121,Bi12Rh12O41,0.0,0
mp-699253,K2H2C3S2O7F6,5.5227,0
mp-27954,CuN3,1.5383,0
mp-554273,AlPO4,5.4822,0
mp-623044,Ce3Si2Rh3,0.0,0
mp-13911,Ca(ZnGe)2,0.0,0
mp-653569,Al2P2O11F,0.0,0
mp-600167,CuH6(CO2)4,0.0,0
mp-41734,Na8Al6Si6SO28,4.1847,0
mp-559301,SbP(Cl2F3)2,4.487299999999999,0
mp-972423,TbGa2Pd,0.0,0
mp-20446,SnPt3C,0.0,0
mp-23303,RbBr,3.9219999999999997,0
mp-24428,KH2N,2.0569,0
mp-866621,Ca3Sn4S11,0.41169999999999973,0
mp-556538,Na8(CuO2)5,0.0,0
mp-705039,K3CrC5N6O,0.7213,0
mp-542065,CdAgSb,0.0,0
mp-773146,Li2CuPO4,1.1588999999999992,0
mp-9755,HfGeO4,4.161099999999999,0
mp-569885,Cs2TaCl6,0.0,0
mp-11573,TiTc,0.0,0
mp-20630,Ho(MnSn)6,0.0,0
mp-22580,ZrGaNi2,0.0,0
mp-1044492,Pr(SnO3)2,0.0,0
mp-645796,TlFe(MoO4)2,2.5956,0
mp-21288,La2InGe2,0.0,0
mp-770508,Li4Ti3Mn3(FeO8)2,0.4335,0
mp-14926,Sr2ScF7,6.364999999999999,0
mp-739,TiP,0.0,0
mp-1046286,Ca2Ta2WO8,0.17470000000000052,0
mp-865427,KSrCO3F,4.0934,0
mp-29595,CeBN2,0.0,0
mp-9143,LiPF6,7.5394,0
mp-23722,HCl,0.0,0
mp-28295,CsIO3,3.0911999999999997,0
mp-684015,Bi9AuBr9,1.0151999999999997,0
mp-30186,Ba3Si23,0.0,0
mp-1044828,Ca(SnO2)2,0.7145000000000001,0
mp-972914,Sc2AlCd,0.0,0
mp-541365,LiEuH3,0.0,0
mp-1018097,BaCaO2,2.1353,0
mp-18127,Sr(Ni2Sn)2,0.0,0
mp-1047770,AlCu(WO4)2,0.8695000000000004,0
mp-1045348,Al(CoS2)2,0.0,0
mp-1045984,Sr2Mn2AlTlO7,0.0,0
mp-989595,CsRb2InF6,4.8289,0
mp-9544,Er2C3,0.0,0
mp-780676,Na2Cr4O13,1.8189000000000002,0
mp-5506,Ba(AlSi)2,0.0,0
mp-675300,Ho2Zr2O7,2.8437999999999994,0
mp-865010,HfGaRu2,0.0,0
mp-721875,CaB2(HO)8,5.4176,0
mp-5563,Ag5GeO4,0.6784999999999999,0
mp-557763,Nd3NbO7,2.8045999999999998,0
mp-7260,P4S5,2.5252000000000003,0
mp-28112,In5Cl9,2.9777,0
mp-758156,Li3Sn3(PO4)4,0.0,0
mp-1043870,LaMgFeNiO6,0.0,0
mp-556908,Nd5As4(ClO4)3,3.6757,0
mp-556118,BaHgO2,2.1654,0
mp-721328,CaAsH3O5,3.9496,0
mp-12879,Tb2Si5Rh3,0.0,0
mp-27792,K2S5O16,4.5508,0
mp-554435,TcBi3O8,2.0021,0
mp-1041770,As4W3O16,2.0997,0
mp-998982,Ti3Sn,0.0,0
mp-754445,Li2Ti(BO3)2,2.7927999999999997,0
mp-10564,SrN2,0.0,0
mp-14243,Cd3TeO6,0.4990000000000001,0
mp-571540,ZnCl2,4.0184999999999995,0
mp-776051,Li2Mn2Fe(PO4)3,0.8150999999999997,0
mp-849391,InH9(NCl)3,3.7682,0
mp-13589,CuB(CN)4,3.2193,0
mp-574279,TlIn5Se7,0.34140000000000015,0
mp-705094,Co2As2O5,1.9352,0
mp-3075,TlGeS2,1.7578999999999998,0
mp-773164,Gd2V2O7,0.9804999999999997,0
mp-540691,Ba3YIr2O9,0.0,0
mp-989623,SrReN3,1.9969000000000001,0
mp-570163,Tm4Mn4Sn7,0.0,0
mp-11575,YTl,0.0,0
mp-570136,CuI,1.6308000000000002,0
mp-703550,LiZnPH2O5,4.1982,0
mp-504760,Li10Pb3,0.0,0
mp-849271,AgIO3,1.9765000000000001,0
mp-772099,Cd(CuO2)2,0.3201999999999998,0
mp-867290,TbTe,0.0,0
mp-561355,TiSCl6O,2.6524,0
mp-12881,Ba3NbGa3(SiO7)2,3.2958,0
mp-607,CeRu2,0.0,0
mp-1013586,Ba3AsP,0.0,0
mp-861557,Li4Mn3OF11,1.0928,0
mp-686722,Na3TlH24(ClO2)6,2.3972,0
mp-757176,BaYF5,6.4944,0
mp-779249,Gd3TaO7,2.5573,0
mp-1027359,TeMoWSeS2,0.0,0
mp-530217,PrZr3F15,5.467700000000001,0
mp-770408,Rb6Ti2O7,3.2141,0
mp-977541,Hf2TcOs,0.0,0
mp-13819,KAgF3,0.0,0
mp-505228,Sr5Nb5O17,0.0,0
mp-1008777,SmHg2,0.0,0
mp-850393,Fe3(O2F)2,0.0,0
mp-17043,Tm2ZnS4,2.38,0
mp-20605,PbC2(SN)2,2.6512000000000002,0
mp-16502,Ho2Al,0.0,0
mp-555591,SrLiAlF6,7.1824,0
mp-30759,LiMg2Tl,0.0,0
mp-861912,TaTiTc2,0.0,0
mp-5137,Zr2SbP,0.0,0
mp-40189,BaLiLaTeO6,2.9525999999999994,0
mp-1047356,TaF5,4.249700000000001,0
mp-12902,ErAgTe2,0.8967,0
mp-34023,Ba2NbO,0.0,0
mp-977110,NaSnPd2,0.0,0
mp-976264,Li3Nd,0.0,0
mp-866819,Ca2SnS4,0.0,0
mp-20245,CeFeSi,0.0,0
mp-722674,K4Tc2H6C8O21,0.5076,0
mp-23956,K2MgH4,3.4385,0
mp-30192,Pr4Se3O4,1.3245000000000005,0
mp-16403,SnHgP14,1.1914999999999996,0
mp-972541,SmTmTl2,0.0,0
mp-1027141,MoWSe3S,0.7408000000000001,0
mp-510262,Cs3O,0.0,0
mp-22154,In2Au,0.0,0
mp-980940,Ti3N,0.0,0
mp-27397,IrBr3,1.5564999999999998,0
mp-780119,V6O11F,0.45829999999999993,0
mp-978273,Mg3Cd,0.0,0
mp-21540,Li3TiF6,0.1575000000000002,0
mp-571518,WCl6,1.9169,0
mp-675120,Cu2SiTe3,0.1598999999999995,0
mp-540314,Fe(PO3)3,2.0457,0
mp-772635,Mn3Cr2Co3O16,0.0,0
mp-651723,C5N4,5.8856,0
mp-11826,CaPd5,0.0,0
mp-558456,Hg3Se4O5,1.8293,0
mp-734771,PrP2(HO)7,5.2332,0
mp-571298,SiC,1.914200000000001,0
mp-849636,SrTaNO2,0.9120999999999997,0
mp-1009894,ZrC,0.484,0
mp-769516,Na2NiPCO7,0.0,0
mp-567146,Si3PH27C9BrN2,2.8687,0
mp-690575,Nb2NiO6,0.0,0
mp-38418,Tm2Ti2O7,2.6252999999999997,0
mp-14384,Ba3Ho(BO3)3,3.8221,0
mp-1018902,PrSbPt,0.0,0
mp-17838,KTb3F10,6.9507,0
mp-567872,Ba2Bi,0.0,0
mp-9957,V2GeC,0.0,0
mp-769573,LiTiVO4,1.4748000000000006,0
mp-849805,B12H21C4S2I,4.2795,0
mp-646420,Nd2InRh2,0.0,0
mp-570315,PBr2N,2.9785,0
mp-977355,LiYb2InGe2,0.008000000000000007,0
mp-998949,TiPt,0.0,0
mp-28420,SrH4O3,4.3444,0
mp-642,BaCu13,0.0,0
mp-11114,KCuPdSe5,1.0179,0
mp-3521,NaBF4,7.841200000000001,0
mp-1027471,TeMo2SeS2,0.0,0
mp-653817,Fe6Ge2(CO)23,2.1941,0
mp-23519,Ga4Bi2O9,2.8782,0
mp-556754,Ti3O5,0.0,0
mp-30638,ThFe3,0.0,0
mp-642642,Ba2(InP)5,0.3087,0
mp-14018,K3As,0.11349999999999999,0
mp-781622,Lu(HO)3,4.341,0
mp-570602,B,0.0,0
mp-30875,Ti2Sn,0.0,0
mp-1042450,CaCoSb2O7,0.6996000000000002,0
mp-6591,SrLiAlF6,7.3154,0
mp-558309,K4SnSb2F14,4.0813,0
mp-27666,IrCl3,1.8911,0
mp-14726,Na4TiO4,3.3245999999999998,0
mp-1444,CaCd2,0.0,0
mp-669462,TeS2N3Cl5,0.43779999999999997,0
mp-19314,Mn4Be3Si3SO12,3.1083,0
mp-28167,Th6CoBr15,0.6808999999999998,0
mp-27477,TcOF4,0.9928999999999999,0
mp-674328,Zn(InS2)2,1.4023999999999996,0
mp-690760,TiH,0.0,0
mp-698518,HgTe3H12C4N,0.6397999999999999,0
mp-510367,Fe2P2O7,3.6939,0
mp-1044871,CrO2,0.3676,0
mp-631527,In2GeB,0.0,0
mp-30254,Ba3(LiSn2)4,0.0,0
mp-569770,Si(H3C)2,3.5723000000000003,0
mp-756205,ScBiO3,2.7215,0
mp-34240,NaZnAs,0.0,0
mp-558747,TiTlPS5,1.1762000000000001,0
mp-772659,Li3CrO4,0.825,0
mp-583071,CaAlH5,3.3518999999999997,0
mp-12876,ThPS,0.0,0
mp-21081,ScNiB4,0.0,0
mp-1027980,Te2Mo3W(SeS2)2,0.0,0
mp-8023,AlO,0.0,0
mp-1046186,Sr2YCu2SnO7,0.0,0
mp-859784,LiV2O3F,1.2511999999999999,0
mp-22885,XeF2,2.6861999999999995,0
mp-30369,Ca7Au3,0.0,0
mp-756098,BaSrI4,3.6125999999999996,0
mp-975521,NdMgO3,0.0,0
mp-14039,K2NaRhF6,1.9994,0
mp-1042922,La2TeO6,3.454399999999999,0
mp-21849,Eu(SiIr)2,0.0,0
mp-776278,Ti2N2O,0.9256000000000002,0
mp-541276,CaYbInSe4,0.0,0
mp-777047,LiTmO2,4.6182,0
mp-19774,Eu(CdSb)2,0.0,0
mp-752410,Ba2GeO4,2.9627,0
mp-770328,Li4Cr3FeO8,2.1696999999999997,0
mp-24090,BaH4(IO)2,3.6575000000000006,0
mp-21228,SrCuSeF,1.1989,0
mp-1046105,Ta2VZn2O8,1.3805999999999998,0
mp-770648,Li8ZrO6,4.0226,0
mp-569610,CoI2,0.0,0
mp-614572,Ca3InP3,0.9885000000000002,0
mp-209,Er2Se3,0.7923,0
mp-22376,PrNiSn,0.0,0
mp-756432,Li2Ti(TeO4)3,1.5032999999999999,0
mp-973603,Lu2ZnPd,0.0,0
mp-20466,Sn7Ir5,0.0,0
mp-779877,Li6MnFe5(BO3)6,2.7977000000000003,0
mp-30219,KGaCl4,4.3612,0
mp-720901,Na3H6S2NO10,3.7635,0
mp-571584,LiMgSbPt,0.0,0
mp-864670,Ta2VOs,0.0,0
mp-723483,Sr2Zn(HO)6,2.7227,0
mp-6607,Ca5Si2SO12,4.4382,0
mp-1041130,HoV2ZnO6,1.0043999999999995,0
mp-707302,Rb10Al24Cd7(SiO4)24,2.2832,0
mp-1046957,BaMg(SnO2)4,0.0,0
mp-2847,ErB4,0.0,0
mp-570831,U3NbSb5,0.0,0
mp-1047521,Bi3(AsO4)4,0.0,0
mp-4049,U2P2O9,0.22850000000000037,0
mp-13133,K2TiO3,3.4121,0
mp-13576,EuAsO4,0.0,0
mp-510011,La3CuGeSe7,1.1836000000000002,0
mp-555403,K3WF6,2.6188000000000002,0
mp-148,Ge,0.0,0
mp-637256,KC2N3,4.3293,0
mp-797,DyPd3,0.0,0
mp-570832,SrPt5,0.0,0
mp-6694,Cs2Zr(SiO3)3,4.789899999999999,0
mp-632667,YbH2,0.5937000000000001,0
mp-27198,Cd(NO3)2,3.4581,0
mp-680059,Re3(SCl)7,1.6775000000000002,0
mp-945194,Na5(SiO3)6,0.0,0
mp-1008682,TiS2,0.0,0
mp-1046805,Ca4Fe5(TeO6)3,1.0503999999999998,0
mp-7881,Sr(CdGe)2,0.0,0
mp-996983,AgAuO2,0.9044000000000003,0
mp-866063,NdDyMg2,0.0,0
mp-703559,KSrAs(H4O3)4,4.3016,0
mp-1043066,Ca3Ta6(FeO6)4,2.7559,0
mp-18230,Si(Hg2Se3)2,0.14360000000000017,0
mp-616249,BiOs2(CO)6,2.1407,0
mp-568324,Cr5Ge3,0.0,0
mp-989534,LaMoN3,1.2207999999999997,0
mp-1017591,BaRuO3,0.0,0
mp-865175,LiEuTl2,0.0,0
mp-13161,ZnO,0.0,0
mp-1041196,Ti3P3O13,0.0,0
mp-764798,Li5Fe8(BO3)8,1.4374,0
mp-560663,Rb(CoS)2,0.0,0
mp-642736,K3H5Pd,2.9599,0
mp-754112,CeBrO,0.0,0
mp-697133,Cs2CaH4,3.01,0
mp-777483,Ge2N2O,2.3193,0
mp-571286,SiC,1.8003999999999998,0
mp-9712,Ba3BPO3,1.4649,0
mp-1009735,ReC,0.0,0
mp-23067,K2PdCl6,1.2027,0
mp-2296,Ni3P,0.0,0
mp-769366,Nd3SbO7,2.5869000000000004,0
mp-1027112,MoW3(SeS)4,0.6724000000000001,0
mp-560899,CaB3H5O8,5.5945,0
mp-12776,TlFeS2,0.0,0
mp-3775,Na2SiF6,6.9887999999999995,0
mp-36866,Al2CdO4,2.676,0
mp-13475,CeSi2Ir3,0.0,0
mp-3255,SrCu2O3,0.0,0
mp-1041912,CaCo(SiO3)2,2.7877,0
mp-38468,Li7Ti12O24,0.0,0
mp-545728,PrBi2IO4,1.2299000000000002,0
mp-555184,SmTiClO3,3.2110000000000003,0
mp-555507,Sr10Al2ClF25,6.4233,0
mp-762840,Li3CrP2HO8,2.822,0
mp-632413,CoCl2,0.0,0
mp-570504,Yb11InSb9,0.6565000000000003,0
mp-28294,Sb11F43,3.5092999999999996,0
mp-510488,SmMnSbO,0.0,0
mp-4851,Sr(GaO2)2,3.0697,0
mp-1048666,Ca3(TiS2)8,0.0,0
mp-1044527,PrMgV2O6,0.8948999999999998,0
mp-975364,RbCuO3,0.0,0
mp-984754,PmHo3,0.0,0
mp-722502,Li3P11(H3N)17,1.9667999999999999,0
mp-3972,Ce2SO2,0.0,0
mp-981545,Ho3Zr,0.0,0
mp-722864,H12PtN6(ClO3)2,2.1975,0
mp-11073,Ti3In3Rh2,0.0,0
mp-975044,Li(SiRh)2,0.0,0
mp-861730,Ba5Y3Br19,3.4205,0
mp-707989,LaH12S2NO12,1.6699000000000002,0
mp-600,YbAs,0.0,0
mp-778230,Li4V3Cr3(CuO8)2,0.0015000000000000568,0
mp-28912,MnInBr3,1.6239000000000001,0
mp-14794,K6CoS4,0.4322999999999999,0
mp-17593,Ta5Ge3,0.0,0
mp-23568,XeN2(OF4)2,2.1924,0
mp-30147,ZrTiAs,0.0,0
mp-571638,Rb2Cu(BrCl)2,0.12799999999999997,0
mp-22144,Ta2InC,0.0,0
mp-17944,NaCaAlF6,7.1135,0
mp-549720,NbI2O,0.8338000000000001,0
mp-1023193,CaMg6Nb,0.0,0
mp-42089,K4Gd2C3O9F4,2.7175000000000002,0
mp-9692,K2GeSe3,1.7264,0
mp-775932,Ba2YI7,2.4651,0
mp-975284,RbIrO3,0.0,0
mp-6927,NpO,0.0,0
mp-2221,Zr2Ag,0.0,0
mp-775137,CoCu3(PO4)4,0.0,0
mp-625686,H4N2O3,4.819599999999999,0
mp-3094,SrAl2O4,4.1398,0
mp-996977,AgAuO2,0.0,0
mp-1030269,Te4Mo3WS4,0.0,0
mp-30802,NdZn11,0.0,0
mp-1048499,AlSn3Se2ClO8,2.5163,0
mp-4842,Al2ZnS4,2.4939,0
mp-15558,Li3GaF6,6.2804,0
mp-19431,LiYMo3O8,0.0,0
mp-585408,Li3Sn2(PO4)3,2.8054999999999994,0
mp-1042320,ZnMo2O7,3.6986999999999997,0
mp-18595,LuCu(BO2)5,0.7753999999999999,0
mp-556183,Pr3U(ClO2)3,1.4230999999999998,0
mp-643270,K3ZnH5,3.7100999999999997,0
mp-850985,LiFeP2HO7,4.0674,0
mp-768077,Na2FePCO7,2.4229000000000003,0
mp-1002570,KMnO2,1.8889,0
mp-28328,RbI3,1.8571,0
mp-17148,Na3GaSe3,2.0823,0
mp-1019602,Cs2Al2B2O7,4.2435,0
mp-977394,TbAlAg2,0.0,0
mp-775960,Li4V5Sb3O16,0.7078000000000007,0
mp-1048946,Ca(CoO2)2,0.0,0
mp-28914,Cd4P2Br3,1.3981000000000003,0
mp-23259,LiBr,4.9234,0
mp-571435,Hg2H10C3NCl5,2.8392999999999997,0
mp-540199,LiNi2(PO4)3,0.0,0
mp-767769,LiVF5,1.817,0
mp-676020,BaCO3,4.017799999999999,0
mp-22703,Ni8Ge2B3,0.0,0
mp-557997,CaSeO3,4.2502,0
mp-1030392,Te2MoWSeS,0.0,0
mp-1043317,ZnCo(GeO3)2,1.5351,0
mp-977581,EuHgAu2,0.0,0
mp-281,YbCo2,0.0,0
mp-775166,Li2TiMn3O8,0.7382,0
mp-3527,Na3AgO2,1.1398,0
mp-764,CeCo5,0.0,0
mp-850186,Li4Mn2Co3Sn3O16,0.0,0
mp-668,PrGa2,0.0,0
mp-1394,Rb2O,1.3192,0
mp-585964,SbS3N2Cl7,1.818,0
mp-542678,AlAs(H2O3)2,3.6411999999999995,0
mp-1018027,VN,0.0,0
mp-689927,Na3DyTi2Nb2O12,2.5154999999999994,0
mp-773174,LiCr4O12,0.0,0
mp-555121,MgAs2S2(OF3)4,3.5807,0
mp-505663,CsTi2Cl7,0.2471000000000001,0
mp-1010,MnB4,0.0,0
mp-760319,Bi5O7F,2.5465999999999998,0
mp-643573,Mg3MnH7,1.6630999999999996,0
mp-11200,LaMg2Ni,0.0,0
mp-631371,TlCuIr,0.0,0
mp-10598,CuSn,0.0,0
mp-685036,Al2O3,3.2993999999999994,0
mp-31056,Dy3InN,0.0,0
mp-557012,Li3Sc(BO3)2,4.5439,0
mp-763013,Fe2OF3,1.3916,0
mp-1008680,TiGePt,0.8818999999999999,0
mp-557926,CdAs2(XeF5)4,2.3693999999999997,0
mp-540820,Re(CO)5,2.9920999999999998,0
mp-560533,CuH8C4(NO3)2,0.0,0
mp-21153,ErGeIr,0.0,0
mp-5501,Tl(CoS)2,0.0,0
mp-770612,Li4CrH8SO7,2.5109,0
mp-1027106,TeMoWSeS2,0.0,0