mp_id,formula,band_gap,fidelity
mp-981379,Zn3CdS4,1.6797999999999997,0
mp-756050,TaCuO3,1.5612,0
mp-770865,Mn3SnO8,1.6699000000000002,0
mp-35906,Y(AgCl2)3,2.8066,0
mp-1018691,Eu2H3Br,0.0248999999999997,0
mp-1042329,Ba2AlBi3O8,0.0,0
mp-20579,DyCoSn2,0.0,0
mp-768242,PtO3,0.0,0
mp-21266,BPPbO5,4.259,0
mp-2706,SnF4,3.0953,0
mp-770416,Dy2WO6,3.2102,0
mp-15074,Sr(PIr)2,0.44320000000000004,0
mp-8499,Ho2Cr2C3,0.0,0
mp-625836,Sr(H2O3)2,3.034,0
mp-571458,RbGeI3,0.5540000000000003,0
mp-775969,V3Cr3(WO8)2,1.0399000000000003,0
mp-764478,LiFe8(BO3)8,1.3932999999999998,0
mp-7589,Mg2NF,2.1273999999999997,0
mp-1008279,Co3Mo,0.0,0
mp-1018631,Dy(CuS)2,0.0,0
mp-5798,Al6C3N2,0.0,0
mp-1045327,Ca(BiO3)2,0.45009999999999994,0
mp-753355,Ce5Y2O13,1.2862,0
mp-763429,LiFe(CoO3)2,0.33989999999999987,0
mp-778584,LiMn2(CoO4)2,0.20630000000000015,0
mp-1045954,Zn2Fe9O13,0.6078999999999999,0
mp-777471,Li2FeF4,3.587,0
mp-760244,Ca4Nb2O9,2.9770000000000003,0
mp-989535,Cs2AlInH6,0.6103999999999998,0
mp-561414,K3Hg3S2Br5O6,1.999,0
mp-4,Nd,0.0,0
mp-1046588,Mg4Mn5(TeO6)3,0.7005999999999997,0
mp-720825,NaPH4O5,4.9948999999999995,0
mp-753490,TiCuGe,0.0,0
mp-560163,Ca4Si2O7F2,4.678,0
mp-1046345,Ba2YTlCr2O7,0.0,0
mp-1042373,Bi2O5,0.0,0
mp-3593,Ta2Sn2O7,1.4851999999999999,0
mp-674804,Sm2PbSe4,1.6411000000000002,0
mp-672356,MnSbPt,0.0,0
mp-558706,RbGa3S5,2.5212,0
mp-707464,CuH3(NO2)3,0.4393,0
mp-975176,Rb2HgAu,0.0,0
mp-29997,La3AsI3,0.0,0
mp-1046389,Ba2AlTlW2O7,0.0,0
mp-530728,Sc11Nb3O24,2.5343,0
mp-686540,Na3Al2P2O8F3,4.7689,0
mp-9850,DyP5,0.09049999999999958,0
mp-764525,Li3Fe8(BO3)8,1.3699999999999999,0
mp-18423,CsYbP2O7,0.07079999999999997,0
mp-27343,Re4Cl8O9,1.0174,0
mp-10558,La3(NbN3)2,0.0,0
mp-972970,ScSiRh2,0.0,0
mp-556112,AuCS2Cl3,1.9556999999999998,0
mp-628606,Rb2PdI6,0.0,0
mp-755046,Ce3Y4O12,1.4851,0
mp-721249,Li10Ge(PO6)2,4.4921,0
mp-559833,Na2YC(OF)3,5.261,0
mp-568865,ZrTe,0.0,0
mp-550751,BaBeSiO4,4.5484,0
mp-559417,LaB2ClO4,4.154100000000001,0
mp-754031,YBrO,3.6348,0
mp-2639,Na3N,0.0,0
mp-1027760,Te2Mo3W(Se2S)2,0.0,0
mp-1043887,CaLaFeBiO6,0.0,0
mp-972522,SmTmZn2,0.0,0
mp-642210,MgSiO3,4.2049,0
mp-762304,BiOF,3.2204999999999995,0
mp-4374,UAsS,0.0,0
mp-561255,ZnBi6P2(O7F)2,2.5947,0
mp-866200,Li2SmTl,0.0,0
mp-775018,TiFe(PO4)2,1.783,0
mp-26949,LiSn2(PO3)5,4.116300000000001,0
mp-722963,CuH20S2(NO7)2,0.0,0
mp-29992,AsPbF7,4.0652,0
mp-4624,TaBO4,3.4514,0
mp-29305,Re2PbO8,3.7674000000000003,0
mp-29764,RbHF2,6.6904,0
mp-1118,SiNi2,0.0,0
mp-570170,Mo15Se19,0.0,0
mp-7769,Th2SN2,1.4196999999999997,0
mp-569877,Dy2InGe2,0.0,0
mp-540714,NaH8SNO6,4.9987,0
mp-12027,TaTlSe3,0.31020000000000003,0
mp-697757,LiCr2(PO4)3,0.19540000000000002,0
mp-27928,Ge2S3I2,2.2528,0
mp-31113,Dy3GaO6,3.5851999999999995,0
mp-568314,CoH16C4(NCl2)2,0.8333999999999999,0
mp-10751,Dy,0.0,0
mp-1041708,Mn3(AsO4)4,0.7251,0
mp-989504,Na2LiNF6,2.7239,0
mp-7524,NbPSe,0.0,0
mp-20907,La2InRh2,0.0,0
mp-1029347,KPtN,0.0,0
mp-865804,TaZnRh2,0.0,0
mp-1008820,PdN2,0.0,0
mp-567752,Cs2In3,0.008000000000000007,0
mp-7982,Mg2SiO4,4.3953999999999995,0
mp-27277,PCl3O,4.4528,0
mp-780861,Fe4O7F,0.0,0
mp-13456,ZnS,2.0416,0
mp-569568,Ta3AlC2,0.0,0
mp-759713,Li8Ti15O32,0.0,0
mp-774616,H5C3N5O,3.5996,0
mp-9324,Ba3MnN3,0.0,0
mp-631496,Be2ReCl,0.0,0
mp-34126,Cu4SnP10,0.19340000000000046,0
mp-561848,C3O2,3.8777,0
mp-625676,H4N2O3,4.999,0
mp-16626,SmAl7Au3,0.0,0
mp-542828,Dy5Si4,0.0,0
mp-989606,CaReN3,1.8056,0
mp-4913,LiGa2Rh,0.0,0
mp-867181,SmMgHg2,0.0,0
mp-27421,RbBiF6,2.6172,0
mp-1009483,NiN,0.0,0
mp-28473,CClF3,6.6055,0
mp-568643,RbC8,0.0,0
mp-1018028,TiS,0.0,0
mp-1013555,Sr3AsN,0.41830000000000034,0
mp-977559,Dy2MgGe2,0.0,0
mp-1003311,CaMn2O4,1.2687999999999997,0
mp-1048717,Sr4MgCo2(SO3)2,0.0,0
mp-755586,NaLaO2,3.2411000000000003,0
mp-684743,GaGe5H6C4NO12,1.5426000000000002,0
mp-27187,Be2TlF5,4.9163,0
mp-760410,BePO4,0.0,0
mp-14152,SmNbO4,3.5614000000000003,0
mp-557154,NaGaO2,2.7914,0
mp-1009695,CaB2,0.0,0
mp-760582,Li2AgF3,2.127,0
mp-866132,Na2TlSb,0.38439999999999985,0
mp-542621,TaSe2,0.0,0
mp-24446,LiH2SO4,5.1899,0
mp-19443,WO3,1.1455,0
mp-27507,ScCl,0.0,0
mp-1029737,Ca4VN4,0.12380000000000013,0
mp-29940,SbClF10,2.3471,0
mp-10903,AlPt,0.0,0
mp-625560,H7BrO3,3.8402,0
mp-28695,KSiH3,2.5736,0
mp-4672,TbPS4,2.1701999999999995,0
mp-975655,PrNiGe2,0.0,0
mp-582245,Ce4Al23Ni6,0.0,0
mp-6691,Ba2Dy(CuO2)4,0.0,0
mp-3166,Th(SiOs)2,0.0,0
mp-684509,LiSn(PO3)3,4.2159,0
mp-677437,Na3Zr2Si2PO12,4.4153,0
mp-1020709,Sr5(Ga3O7)2,2.9142,0
mp-24345,ZnH12(SO6)2,5.0235,0
mp-28347,K3Al2As3,1.1862,0
mp-863761,K2BaCdSb2,0.1504000000000003,0
mp-554515,KScH4(C2O5)2,3.262,0
mp-559184,Zn2Si3Pb4SO15,3.4961000000000007,0
mp-1667,Co2Ge,0.0,0
mp-638553,Ba2InIrO6,0.0,0
mp-1033646,RbHfMg6O7,0.0,0
mp-31289,Bi5NO10,2.6161,0
mp-2621,ErAg,0.0,0
mp-28553,Ca2IN,2.3484999999999996,0
mp-540903,CdC2(SN)2,3.2981000000000003,0
mp-752856,Li10Fe4S9,0.0,0
mp-1048235,MgCoP2O7,2.9851999999999994,0
mp-8686,Na3AsSe3,2.0080999999999998,0
mp-976583,K3Co,0.0,0
mp-774721,Li5La3Nb2O12,3.4594,0
mp-19737,LaMnSi,0.0,0
mp-6709,Ca3La3(BO3)5,4.1370000000000005,0
mp-15802,Tm2MgSe4,1.4057000000000002,0
mp-14484,KNaLi2(SO4)2,5.2970999999999995,0
mp-21152,Pu2Mg,0.0,0
mp-20355,Ce2CoSi3,0.0,0
mp-22975,Rb2TeCl6,2.6399999999999997,0
mp-11454,Hf2Pd,0.0,0
mp-1047887,MgCo3P3O13,0.34299999999999975,0
mp-1019718,CsBe4(BO3)3,5.4195,0
mp-583030,MnSnPt,0.0,0
mp-768966,Li5BO4,5.3519,0
mp-10264,NiTe,0.0,0
mp-21469,VCo2Sn,0.0,0
mp-21104,Hf5Sn3,0.0,0
mp-30390,HoSnAu,0.0235000000000003,0
mp-756214,YAlO3,4.958600000000001,0
mp-760507,AsRhO4,0.0,0
mp-28080,K2SnTe5,0.5637999999999996,0
mp-1019525,Ba3ZnB5PO14,4.8405000000000005,0
mp-756344,Li4ZrO4,4.3207,0
mp-1558,SrPd2,0.0,0
mp-2041,HoZn2,0.0,0
mp-777860,Li2FeF6,0.1775000000000002,0
mp-570849,Mg5Tl2,0.0,0
mp-22460,LiIn,0.0,0
mp-753285,Mg9CuO10,0.0,0
mp-866156,YGaRh2,0.0,0
mp-561251,Rb2Y(NO3)5,3.3341,0
mp-770607,Li3VSi4(HO6)2,2.3287000000000004,0
mp-24723,TaH2,0.0,0
mp-20840,MnCo2Sn,0.0,0
mp-974933,Rb3Mo,0.0,0
mp-669554,Mn3SiNi2,0.0,0
mp-774859,LiNbPO5,0.0,0
mp-1020670,SrB4O7,5.1758999999999995,0
mp-866306,Ba(NdS2)2,1.6426000000000003,0
mp-28982,Pd(PbCl3)2,1.4046,0
mp-23025,LaClO,4.069,0
mp-634464,K3B12H12Br,0.6967000000000001,0
mp-998314,CsInI3,0.0,0
mp-761540,Co3SbO8,0.0,0
mp-707424,Al2H12(SeO5)3,4.7445,0
mp-554540,Li5ReO6,2.2088,0
mp-980426,TmAlAg2,0.0,0
mp-632802,Ba2CaTlCu2O7,0.0,0
mp-761841,Li2SnP2O7,3.466,0
mp-20629,U(CoP)2,0.0,0
mp-722472,C6S3(N3Cl)2,0.501,0
mp-636827,TiO2,2.7733,0
mp-982065,PrHo3,0.0,0
mp-567207,SrIn4,0.0,0
mp-541594,Sc8Te3,0.0,0
mp-734160,NaH5(SO4)3,0.0,0
mp-3301,Dy(SiPd)2,0.0,0
mp-543001,Zr5Sn4,0.0,0
mp-1049286,LaZnCrBiO6,0.8994999999999997,0
mp-554389,Ta3(BiS3)2,0.0,0
mp-12872,ErIn5Co,0.0,0
mp-1025648,Te2Mo(WS2)2,0.0,0
mp-1030102,Te4MoW3(SeS)2,0.0,0
mp-28397,Sr4Bi6Se13,0.48870000000000013,0
mp-12780,Sr(GaAu)2,0.0,0
mp-36194,Ba2TiO4,1.8823999999999999,0
mp-23903,HBr,0.0,0
mp-756810,Sr3Ta4(O6F)2,3.2944,0
mp-540785,PCF3,0.9723999999999999,0
mp-23914,CaH12(ClO3)2,4.9878,0
mp-982615,Pm2InAg,0.0,0
mp-20855,Eu(Sb3Ru)4,0.0,0
mp-3534,Ge2Sb2Te5,0.0,0
mp-560266,Na3B5SO8,3.8692,0
mp-972517,SmY3,0.0,0
mp-1016879,CdSiO3,0.6502999999999997,0
mp-1045695,Ba2MgCuSb2F14,0.8667,0
mp-568108,InBr2,2.4137,0
mp-756245,BaYI5,2.1035,0
mp-568752,Ca3SiBr2,0.0,0
mp-29190,Te4MoBr,0.855,0
mp-842,CaPt2,0.0,0
mp-631575,TiCrAg,0.0,0
mp-13095,YAlNi,0.0,0
mp-553954,B4COF6,4.9696,0
mp-9281,ZnTe,0.2871999999999999,0
mp-31077,Tl2TeI6,1.6797,0
mp-1013987,LiNi2P2O9,0.0,0
mp-779662,Zr5Sn3O,0.0,0
mp-1044069,LaZnFeWO6,2.2058,0
mp-540830,OsF5,0.0,0
mp-13538,KPrSiSe4,2.1773,0
mp-770190,Li4V2Si(PO6)2,1.9445999999999994,0
mp-554408,CsAgSb4S7,1.6886999999999999,0
mp-18723,BaV2(NiO4)2,2.6681999999999997,0
mp-9538,Ag3AsS4,0.3498999999999999,0
mp-646122,C20Cl3,1.4316,0
mp-356,Nd2Co17,0.0,0
mp-753721,GdOF,3.3035,0
mp-1048911,Mg(CoO2)2,0.0,0
mp-10685,CdCuSb,0.0,0
mp-980199,YbDyHg2,0.0,0
mp-980392,TmScHg2,0.0,0
mp-6578,Ba3B(PO4)3,5.0114,0
mp-850757,Fe3OF5,1.5957,0
mp-604725,RbMgP(H6O5)2,4.7947999999999995,0
mp-1043021,V4ZnO6,0.0,0
mp-568525,Sr2SnSe5,0.9079999999999999,0
mp-769608,Li4VCr3O8,1.9310999999999998,0
mp-772214,LiZr2O4,0.0,0
mp-772319,Li4Co3Ni5O16,0.6710000000000003,0
mp-779698,ZnTe2O5,3.0117999999999996,0
mp-639747,Ba,0.0,0
mp-777258,Ba3YF9,6.227799999999999,0
mp-30973,Ni3(BiSe)2,0.0,0
mp-570629,Ce4Ru3,0.0,0
mp-2104,UAs,0.0,0
mp-756339,Tm2TeO6,2.45,0
mp-6945,SiO2,5.5482,0
mp-540586,Tl2SnO3,1.1414,0
mp-582988,Bi12PtCl12,0.8982000000000001,0
mp-979900,TmAs3,0.0,0
mp-29535,CeSiI,0.0,0
mp-7623,MgAs4,0.8144,0
mp-1029878,SrMnN2,0.0,0
mp-720572,RbH3(SeO3)2,3.7885,0
mp-643392,Ca(HO)2,4.284999999999999,0
mp-865521,LuI3,2.1804,0
mp-775852,Li4Sb2C4SO16,2.5505999999999998,0
mp-675741,La10US16,0.0,0
mp-22536,U3S5,0.0,0
mp-12431,BaBeF4,7.5543000000000005,0
mp-19974,In2Ag,0.0,0
mp-1046341,Sr2AlCu2SbO7,0.1344000000000003,0
mp-774863,LiNi9S10,0.0,0
mp-573080,As3H9RhC3(ClO)3,2.3400999999999996,0
mp-13450,HfSb,0.0,0
mp-1013549,Ba3BiN,0.0,0
mp-567907,P3N5,3.5526,0
mp-11527,Tm2Ni17,0.0,0
mp-1020598,Y4Si2S3O7,2.4610000000000003,0
mp-1041779,Zn(CuO2)2,0.0,0
mp-997041,NaCuO2,0.44030000000000014,0
mp-650026,PrIn2Cl5,2.7765000000000004,0
mp-27384,AgIO3,2.4375,0
mp-1822,TiAs,0.0,0
mp-743935,Zn2H10N12O5,2.0967000000000002,0
mp-568722,CdBr2,2.8587,0
mp-605485,Fe2CuS3,0.0,0
mp-862713,BeGeRu2,0.0,0
mp-784631,CrNi2,0.0,0
mp-761992,Li2Fe2(CO3)3,3.1623,0
mp-27528,Cd4As2I3,1.1726,0
mp-764679,LiFe2(BO3)2,1.696,0
mp-7247,CeZn3Cu2,0.0,0
mp-777392,Li4V3Ni2Sn3O16,1.5330999999999997,0
mp-20383,TbSiIr,0.0,0
mp-2849,US2,0.0,0
mp-623837,As(CN)3,4.7106,0
mp-2656,Nd3S4,0.0,0
mp-21390,La2InCuSe5,0.5091000000000001,0
mp-861683,Mn3As(HO2)4,1.2746000000000002,0
mp-571514,CdI2,2.36,0
mp-769289,Y2Hg2O5,0.659,0
mp-555388,K2S2NO7,1.9921,0
mp-20228,MnGaNi2,0.0,0
mp-554493,BiAsPbO5,2.2678,0
mp-2816,Nd2Tl,0.0,0
mp-8002,LiGaO2,3.7357,0
mp-754010,ZnCu2O3,0.0,0
mp-976599,LiHg3,0.0,0
mp-1019509,B2S2O9,6.6762,0
mp-36779,PNO,4.9201999999999995,0
mp-1413,P2Ru,0.47499999999999964,0
mp-628616,Na3Li3N2,0.0,0
mp-557516,K2Be2Zn2Si3O11,3.5046999999999997,0
mp-644259,Ti2NiH,0.0,0
mp-973882,Lu2PdRh,0.0,0
mp-865961,K3Bi(AsSe2)6,1.3967000000000003,0
mp-23251,KBr,4.3102,0
mp-1005689,Sm6GaCo2,0.0,0
mp-626977,Si2H2O3,1.9921000000000002,0
mp-570073,Np(NiGe)2,0.0,0
mp-755835,LiBiB2O5,3.3119,0
mp-865912,LiZn2Rh,0.0,0
mp-626550,Ti3H2O7,2.8727,0
mp-8986,Ba2GdC2(O2F)3,3.0692,0
mp-763517,Li4Ti3Co3(NiO8)2,0.7469000000000001,0
mp-24407,CdP2H6O7,4.8402,0
mp-20176,DyPb3,0.0,0
mp-779357,V3OF11,2.1816,0
mp-1029869,K15Mo7N19,1.2845,0
mp-22714,LuCoC,0.0,0
mp-29006,P2SO3,3.7605,0
mp-865252,TmSnRh2,0.0,0
mp-23331,Si3(BiO3)4,3.8978999999999995,0
mp-1007761,HW,0.0,0
mp-568661,Cd(InSe2)2,0.7710999999999997,0
mp-12603,ScSnPt,0.0,0
mp-3045,ErFe4B,0.0,0
mp-672214,BePbF4,5.2044,0
mp-1014910,CrN2,0.15909999999999996,0
mp-541325,Sr2HoGaCu2O7,0.0,0
mp-654109,BaCu4S3,0.4519000000000002,0
mp-770618,MgMnO3,1.9300000000000002,0
mp-765508,V3(O2F)2,1.2187000000000001,0
mp-755789,Na2Be2O3,3.0523000000000002,0
mp-27426,B4PF9,5.712,0
mp-1028468,TeW2SeS2,0.0,0
mp-24767,H12C4NClO4,5.4665,0
mp-29077,LiBiO3,0.1445000000000003,0
mp-974997,Rb3Ge,0.0,0
mp-15983,Ba2NaNb5O15,2.4651,0
mp-860957,Zr5Ti7O24,2.7677,0
mp-4762,TlAg3S2,0.9032999999999998,0
mp-22428,SrCeO3,2.2876,0
mp-625249,P(HO)3,4.2766,0
mp-17208,K2Li14Zr3O14,4.2801,0
mp-738646,Ag4Te(ClO3)2,0.0,0
mp-9080,CsPrS2,2.1610000000000005,0
mp-18852,Na2MoO4,4.3938999999999995,0
mp-555150,KTa(BO3)2,3.6133,0
mp-972202,TcAs3,0.0,0
mp-776334,Ti2N2O,0.9614000000000003,0
mp-540809,Zr2Fe12P7,0.0,0
mp-22503,ZrCo2Sn,0.0,0
mp-762834,LiTi2Co3O10,0.18979999999999997,0
mp-541938,Nb6Co16Si7,0.0,0
mp-1042234,Ca(SnO2)2,0.9708999999999994,0
mp-756742,Lu3AlO6,4.5825,0
mp-998758,TlHgF3,2.1963,0
mp-23736,LiMgH3,4.0494,0
mp-617281,In4Te3,0.12239999999999984,0
mp-684725,KMgH5(SO5)2,0.0026999999999999247,0
mp-1047616,WO2,0.0,0
mp-554952,Te2Pb3(ClO3)2,2.6478,0
mp-781681,LiMn(PO3)4,1.0853,0
mp-5142,Sn3Te3Ir2,0.3959999999999999,0
mp-755044,CaTb2O4,4.032,0
mp-19956,Ba2InO3F,2.0466999999999995,0
mp-568264,SiSe2,2.1493,0
mp-561202,K6NbAs3O,1.0121000000000002,0
mp-569462,Pr15Si10Ni7,0.0,0
mp-556364,Ca2SiCl2O3,5.1049,0
mp-978522,SmYIr2,0.0,0
mp-1722,Zn13Fe,0.0,0
mp-1047268,MgFeAsO5,1.9847000000000001,0
mp-559071,Ag2Bi2S3Cl2,1.6367999999999996,0
mp-762501,CaH8(NO5)2,3.4974999999999996,0
mp-567459,AgC2N3,3.7313,0
mp-621938,Cs3Cr2I9,1.0042,0
mp-635020,Cs6Bi4O9,2.3603,0
mp-971661,Si,1.3309000000000006,0
mp-8880,AlP,1.9532999999999996,0
mp-621176,YInAu,0.0,0
mp-777071,Li3Sb(PO4)2,4.2233,0
mp-22323,In2O3,0.9578999999999995,0
mp-505721,Rb3VS4,1.6985999999999999,0
mp-672953,Np(FeGe)2,0.0,0
mp-4170,NaTaO3,2.2584,0
mp-569617,Ca3Zn2(CuP2)2,0.04490000000000016,0
mp-17377,KNb(PO4)2,3.1667,0
mp-9191,Na3SbTe3,1.4544999999999995,0
mp-626869,H2WO5,1.9137000000000002,0
mp-19773,GdGa2,0.0,0
mp-972370,Yb2InHg,0.0,0
mp-10566,Lu3BC3,0.0,0
mp-22934,K2PtCl4,1.7942,0
mp-720526,H4CN2O,3.5795000000000003,0
mp-6397,Na2Ca(SO4)2,5.4777000000000005,0
mp-186,Na4Si23,0.0,0
mp-1048392,BaYV4O7,0.0,0
mp-780075,Hf2N2O,1.9925000000000006,0
mp-11875,CO,6.1315,0
mp-9075,CdCuF4,0.6796,0
mp-29832,Sm10Se19,0.27010000000000023,0
mp-758899,Sb2OF8,2.1564,0
mp-11869,HfSnPd,0.38400000000000034,0
mp-631403,CdPOs2,0.0,0
mp-676282,Mg(Mo3S4)2,0.0,0
mp-753748,Li3CuS2,2.2411,0
mp-774530,Ba4Ti11O26,2.2142000000000004,0
mp-2243,NbS,0.0,0
mp-772825,Ta2BeO6,3.3709999999999996,0
mp-775203,Li8ScFe7(SiO3)16,2.7487000000000004,0
mp-20546,Ba2In2O5,0.919,0
mp-29655,B2H4C,4.7203,0
mp-769523,Na3Mn2P2(CO7)2,0.7748,0
mp-568670,Cs2NaTbCl6,5.2046,0
mp-2780,Fe3Se4,0.0,0
mp-1172,MgRh,0.0,0
mp-567256,P2H19C6I2NCl4,2.1525000000000003,0
mp-684031,Mg3(TiAl9)2,0.0,0
mp-769039,Dy2TeO6,3.0392,0
mp-5915,TlNO3,2.7866999999999997,0
mp-22528,ThCrB4,0.0,0
mp-777525,LiFeF4,3.2287000000000003,0
mp-1044214,Mg(WO2)4,0.0,0
mp-11649,Ca3SiO,0.18660000000000032,0
mp-1030752,Sr8Co3N8,0.0,0
mp-1045800,CaV(PO3)4,2.9581,0
mp-7144,Sm3AlC,0.0,0
mp-18875,MgWO4,3.6767000000000003,0
mp-550008,ScBiO3,0.6928999999999998,0
mp-2449,NbRh3,0.0,0
mp-865108,NaSmHg2,0.0,0
mp-698375,CuH12C5S4N,1.6568999999999998,0
mp-777924,Li2Fe3F8,2.9391000000000003,0
mp-23018,BiSbO4,2.4146,0
mp-622009,TaNi2TeSe,0.0,0
mp-752906,Ba4Pb3O10,0.0,0
mp-23798,H4OF2,7.0619,0
mp-27731,HfH2,0.0,0
mp-674972,Rb6Pb5Cl16,3.1411000000000002,0
mp-866017,LiNd2Al,0.0,0
mp-761322,LiNiBO3,3.1186,0
mp-769144,SnGeO3,2.0427000000000004,0
mp-974799,Rb3Sr,0.0,0
mp-22583,KInP2S7,2.0423,0
mp-775811,LiVFeO4,1.1134999999999997,0
mp-29504,ClF,2.0481000000000003,0
mp-690851,BaH2(CO2)2,4.6763,0
mp-5448,Pr3SbO7,2.7215,0
mp-545541,Na4CO4,1.6256999999999997,0
mp-770949,Li2VPCO7,2.2484,0
mp-10528,Ho2AlSi2,0.0,0
mp-764959,VF5,2.8066000000000004,0
mp-1034839,RbNaMg14O15,1.1056,0
mp-781077,Fe5O7F3,0.0,0
mp-555505,Na2YbC2O6F,0.0,0
mp-29756,RbB3O5,5.2118,0
mp-1046185,Ca2Ta2VO8,1.1227,0
mp-622636,TmInCu2,0.0,0
mp-625359,NdHO2,4.1593,0
mp-15900,Sr3Sc2Cu2S2O5,1.6930000000000005,0
mp-30975,Na3BO3,2.9455999999999998,0
mp-560173,KAlSiO4,4.5482,0
mp-21767,Si2Pb3O7,2.6294,0
mp-679967,Nb3Se10Br3,1.2044000000000001,0
mp-753031,LiCu5F12,0.0,0
mp-21426,Dy(FeGe)2,0.0,0
mp-1019259,SrSnHg,0.0,0
mp-571350,Ba(AsPd)2,0.0,0
mp-13973,Gd2SeO2,1.3184999999999998,0
mp-570140,AuBr,1.9716000000000002,0
mp-12059,Sm(PRu)2,0.0,0
mp-4252,SnPS3,1.8210000000000002,0
mp-698351,AgH6C4(NO)2,2.3857,0
mp-1019101,SmGeAu,0.0,0
mp-19377,LiLa2MoO6,1.6197999999999997,0
mp-28365,Na3AuO2,1.974,0
mp-1046095,Ni5O7,0.0,0
mp-1042314,CaMo2O7,3.7247000000000003,0
mp-30543,RbAg7S4,0.4418000000000002,0
mp-1044540,BaMg(MoO2)4,0.0,0
mp-626103,Al(HO)3,4.9129000000000005,0
mp-743715,TiH10N3F5,0.9533,0
mp-685613,Ba2PPd2,0.0,0
mp-1023926,Te2W,1.0799,0
mp-30936,B5F6,3.2984999999999998,0
mp-556339,Hg3AsO4,1.7517,0
mp-562541,Cs2Na3TlO4,1.4570000000000003,0
mp-558566,Ba5Er2ZrAl2O13,2.5861,0
mp-860886,Li7Cu(SiO4)2,1.1446,0
mp-771321,Cs4GeO4,2.5359,0
mp-625474,H2SO4,5.5461,0
mp-1570,YFe2,0.0,0
mp-1029474,Ca7SiN6,1.8302999999999998,0
mp-10080,PrGeBO5,3.9977,0
mp-1029741,Sr3IrN3,0.0,0
mp-27192,CsBe2F5,7.180899999999999,0
mp-1029801,CsMn2N3,0.0,0
mp-771091,Li2Cr2O7,2.1985,0
mp-698567,Cr(Bi7O12)2,2.018,0
mp-30011,SbKrF7,2.3799,0
mp-2396,HoCo2,0.0,0
mp-2670,Nb3Ga,0.0,0
mp-1048025,Ba2Ti3AlO7,0.0,0
mp-776025,Ti3NbCu2(PO4)6,0.011499999999999844,0
mp-1043629,ZnSi4WO10,2.0197,0
mp-998603,RbPbBr3,2.8211,0
mp-706910,MgB2H6O7,5.412599999999999,0
mp-1028478,MoW3(SeS)4,0.6242000000000001,0
mp-622345,U5Ge3,0.0,0
mp-4992,ScCrC2,0.0,0
mp-756440,Er2Pt2O7,1.5404999999999998,0
mp-29651,B4W,0.0,0
mp-8176,RbTlO2,0.8480999999999996,0
mp-20703,Dy3Co6Sn5,0.0,0
mp-3053,DyAlNi,0.0,0
mp-680280,Ru3C10(NO6)2,1.0938,0
mp-984635,LiErSn,0.0,0
mp-30635,Fe3Pd,0.0,0
mp-3539,NbGaNi2,0.0,0
mp-570039,La12Fe2I17,0.0,0
mp-697575,Rb2ZnH4,4.0139,0
mp-780131,Li7MnNi3(PO4)6,0.0,0
mp-1041075,MgNi2(PO4)2,2.5845000000000002,0
mp-1042817,MgNiAs2O7,2.6194000000000006,0
mp-567362,BiTe,0.0,0
mp-542826,Sc2PbSe4,1.2338,0
mp-10632,TlS,0.0,0
mp-18531,K2Cd3Te4,1.438,0
mp-669357,CdI2,2.34,0
mp-775015,Li2Cr3NiO8,0.7266999999999997,0
mp-22723,DyInIr,0.0,0
mp-1042757,CrAs2O7,0.0,0
mp-997101,AgO2F,0.0,0
mp-779404,Li3Cr2(AsO4)3,2.6701999999999995,0
mp-636383,Ba4Sm2Cu2O9,0.0,0
mp-1018127,TbSb2,0.0,0
mp-1044399,Mn(GeO3)2,0.6769000000000001,0
mp-11554,ZrPt,0.0,0
mp-1045991,Sr2YTlW2O7,0.5541,0
mp-33,Ru,0.0,0
mp-677714,K2YbSn(PO4)3,0.0,0
mp-568342,TbCl,0.0,0
mp-780583,Li2MnFe(BO3)2,3.0729999999999995,0
mp-1043493,MgFe(GeO3)2,1.3822,0
mp-985575,LiAg(CO2)2,2.118,0
mp-27952,SNCl,2.6799999999999997,0
mp-862661,LiEr2Ru,0.0,0
mp-1179,DyNi5,0.0,0
mp-765093,LiSb(PO3)4,3.4616,0
mp-9499,Sm2C(NO)2,3.8823,0
mp-770481,Ta9PO25,2.7033,0
mp-558139,CuS,0.0,0
mp-2245,Si3N4,4.654700000000001,0
mp-631362,SiTe2Os,0.0,0
mp-23791,B(HO)3,6.0656,0
mp-20310,LiInSe2,1.6234,0
mp-5083,Er(CuGe)2,0.0,0
mp-169,C,0.0945999999999998,0
mp-1019578,Ca5(SiN3)2,2.4590999999999994,0
mp-1007755,HfAu,0.0,0
mp-24196,Tl2CuH12(SO7)2,0.7928999999999999,0
mp-676724,Ca(Al3Te5)2,0.8812999999999995,0
mp-862779,Tc3Os,0.0,0
mp-553988,Cs2LiF3,5.659000000000001,0
mp-31217,Cu8O,0.0,0
mp-561051,Rb2Sb4S7,1.834,0
mp-1019508,AlGa3N4,2.1797999999999997,0
mp-7795,RbSnS2,0.0,0
mp-1045828,MgV(PO3)4,2.7177000000000002,0
mp-10804,NaYPO4F,5.4899000000000004,0
mp-9003,K2NbCuSe4,1.5915,0
mp-4661,ScOF,4.475899999999999,0
mp-1042810,Mg2W3O8,0.0,0
mp-865877,Ti2RePt,0.0,0
mp-34185,Ca(PrS2)2,2.0570000000000004,0
mp-1003765,Mn2HO4,0.11140000000000017,0
mp-753069,LaBi5O9,1.4817999999999998,0
mp-978842,SrCaO3,0.0,0
mp-541610,GeBr2,2.597,0
mp-638226,La2Ga12Pd,0.0,0
mp-849796,NaZn4H18SClO16,3.2778,0
mp-31180,DyAl4Ni,0.0,0
mp-774523,Li3Sb2(PO4)3,2.9263000000000003,0
mp-23961,Na3AsH18Se4O9,1.329,0
mp-31460,NbCoSb,0.0,0
mp-18139,Na5SiAs3,0.7629999999999999,0
mp-654225,KFe(SeO3)2,2.1843,0
mp-4336,LaPPd,0.0,0
mp-764891,Li5Fe8(BO3)8,1.4773999999999998,0
mp-862316,LiBePt2,0.0,0
mp-770903,Li3Mn(BO3)2,1.2378,0
mp-9305,Mn4As3,0.0,0
mp-605018,NaAgH16C4S4(NO5)2,3.9407,0
mp-1043952,CaMn(GeO3)2,1.3917000000000002,0
mp-770636,Li4V3Co2Sb3O16,0.05149999999999988,0
mp-557637,Hg2SeO3,2.3228,0
mp-554038,CaTa2O6,2.4404,0
mp-862794,K2Pu2O5,0.0,0
mp-755020,SrCa2I6,3.5536000000000003,0
mp-30229,Tb5C2Br9,0.7649999999999999,0
mp-560262,Zn(InS2)2,0.13070000000000048,0
mp-1046323,Ba2Tl2Sn3O10,0.0,0
mp-707250,CaZn2(H5O4)2,3.303,0
mp-19317,Yb(FeO2)2,1.1017000000000001,0
mp-975838,K3Nd,0.0,0
mp-3623,MnAlCo2,0.0,0
mp-6204,Cs2NaScF6,6.799099999999999,0
mp-616026,Sr3InP3,0.8115999999999999,0
mp-8979,TaInO4,3.5676,0
mp-580324,Ce4In8Ni7,0.0,0
mp-5450,K2ZrF6,5.5342,0
mp-542537,SrIn2Rh,0.0,0
mp-18483,Rb6Si2O7,3.1374000000000004,0
mp-652092,Fe4Pb(CO)16,2.1198,0
mp-676564,NdTh9O20,0.0,0
mp-867253,LiZn2Ir,0.0,0
mp-21342,V3Sn,0.0,0
mp-1046301,VZnO2,0.0,0
mp-27,Si,0.0,0
mp-649453,Ca3BCNCl2,2.1064000000000003,0
mp-781016,Li14Fe4O13,2.3295,0
mp-12885,BaAl2Sb2O7,3.4109000000000003,0
mp-24438,K2MgH12(SO7)2,5.196,0
mp-753445,Sb4O5F2,2.9421999999999997,0
mp-15650,AsRu,0.0,0
mp-6625,LaAgSO,1.3631000000000002,0
mp-976277,Nd(NiBi)2,0.0,0
mp-979259,V2ReMo,0.0,0
mp-155,Gd,0.0,0
mp-554190,CaZr4O9,3.8366000000000002,0
mp-1020620,Rb5Li6(BO2)11,4.3579,0
mp-757587,Dy5Bi11O24,2.6561999999999997,0
mp-567731,Nb3Se10Br3,1.2229,0
mp-1004,Nb3Si,0.0,0
mp-556346,Pr(IO3)3,3.3438000000000003,0