mp_id,formula,band_gap,fidelity
mp-667292,K2MgSi5O12,4.484100000000001,0
mp-17243,Pr3CuSnSe7,1.2305000000000001,0
mp-8631,LuAlB4,0.0,0
mp-23850,NaH2N,1.9459,0
mp-20928,Sb2Ru,0.008100000000000662,0
mp-510075,Cs7Au5O2,0.8031999999999999,0
mp-29110,Al2(FeSi)3,0.2298000000000009,0
mp-9569,Ca(ZnP)2,0.875,0
mp-7025,RbTeAu,0.0,0
mp-685150,PbF2,4.3707,0
mp-778973,Zn(NO3)2,3.3381999999999996,0
mp-776253,Li5SbS4,1.6083,0
mp-758145,LiTiP2O7,0.09889999999999954,0
mp-28753,NdI2,0.0,0
mp-707041,PH10SN3O2,3.8755,0
mp-735023,H4CSN2,3.3742,0
mp-752858,Li2CuSiO4,0.0,0
mp-3552,Li2Si2O5,5.24,0
mp-707907,MgH24C6N12(ClO6)2,5.4637,0
mp-567918,Ba2Nd7Si11N23,0.6173000000000002,0
mp-4259,Ca(CoGe)2,0.0,0
mp-639826,C2SeN2,3.336,0
mp-3950,ErInCu,0.0,0
mp-769148,Sc(ClO4)3,3.1683,0
mp-568565,CrAs,0.0,0
mp-756979,Rb3ClO,0.6579000000000002,0
mp-31509,BaIn,0.0,0
mp-20612,NaMnAs,0.0,0
mp-640444,Tb5NiPb3,0.0,0
mp-21349,PuGa3,0.0,0
mp-1029834,HfMgN2,1.6720000000000006,0
mp-568604,KHgC2IN2,2.6355999999999997,0
mp-977140,NaTa3,0.0,0
mp-778032,LiV2(SiO4)2,1.1360999999999999,0
mp-777356,Li2Bi2(SO4)3,1.8644000000000003,0
mp-10736,Ba3N,0.0,0
mp-9573,NaBeAs,1.2793,0
mp-779690,Hg(TeO3)2,1.9151999999999998,0
mp-11964,Ce2CdPt2,0.0,0
mp-1020118,MgSiO3,4.558400000000001,0
mp-974267,KH8N3,2.5334,0
mp-764512,Li5Fe8(BO3)8,1.4401000000000002,0
mp-1030571,Te4Mo3W(SeS)2,0.0,0
mp-755647,CaPt3O4,0.0,0
mp-24650,YH2,0.0,0
mp-560187,SrCuAs2O7,0.5214999999999999,0
mp-554501,Ba5Os3ClO15,0.6081000000000003,0
mp-1029872,Sr2ReN3,0.0,0
mp-770526,Li6Fe2B4SO16,0.0,0
mp-734069,BH10C2N5O3,4.5377,0
mp-1029702,MgTiN2,0.6458000000000004,0
mp-769477,Na3Mn2P2(CO7)2,0.5319,0
mp-1028414,MoWSe4,0.9440999999999997,0
mp-6896,Rb2NaCo(CN)6,4.338900000000001,0
mp-778180,CsTi(NbCl3)6,0.0,0
mp-20499,Sc2FeS4,0.0,0
mp-603576,Sc5(In2Ni)2,0.0,0
mp-505574,Co2Mo4C,0.0,0
mp-568014,Nb3Bi,0.0,0
mp-554543,SiO2,5.4402,0
mp-31087,Tb2Pd2Pb,0.0,0
mp-555100,NbBiO4,2.5161,0
mp-11806,LiMgSnPt,0.0,0
mp-504678,CoSeO4,1.6888999999999998,0
mp-695979,AlH18(BrO6)3,0.11959999999999993,0
mp-971996,SrHoO3,0.0,0
mp-770859,Mn3Co3(CuO8)2,0.06909999999999994,0
mp-764409,Li2CrO3,0.6244999999999998,0
mp-9782,KAg3Se2,0.006599999999999939,0
mp-754621,Sm2Ge2O7,3.8174,0
mp-695383,K2HS2NO6,5.2707999999999995,0
mp-2275,UF6,2.7932,0
mp-21518,CeMgTl,0.0,0
mp-978258,MgTa,0.0,0
mp-779299,Li3Mn4(BO3)4,0.0,0
mp-1001790,LiO3,0.17820000000000003,0
mp-690733,H2SO4,6.0968,0
mp-19505,SrCr10O15,0.0,0
mp-28930,KC8,0.0,0
mp-18956,SmCrO4,0.2479,0
mp-1016095,LiMn2O4,0.0,0
mp-755977,CaPbI4,2.7904999999999998,0
mp-862734,Pm2ZnSn,0.0,0
mp-558681,PClOF2,5.4542,0
mp-28034,Cu2P7,0.6893000000000002,0
mp-29027,TaI2O,0.8813000000000004,0
mp-558181,NaSiBO4,5.5274,0
mp-770494,LaMgI5,2.5768999999999997,0
mp-707337,K3H3Pd,1.7674,0
mp-3835,Ba(Mo3S4)2,0.0,0
mp-28536,BaSe2O5,3.3781000000000003,0
mp-760,FeSe2,0.3597999999999999,0
mp-772750,Li3MgPCO7,5.4592,0
mp-743810,CsVZn(PO3)6,0.0043999999999999595,0
mp-600007,SiO2,5.6068999999999996,0
mp-15312,Ca4Al6TeO12,3.1457,0
mp-1042181,BaAlCuAgO5,0.0,0
mp-28481,Ti(ClO4)4,2.9081,0
mp-629476,RuC3SeO3,2.1874,0
mp-558105,LiB6O9F,6.4556,0
mp-17756,RbAg2SbS4,0.6094999999999999,0
mp-27245,BSBr,3.6628000000000003,0
mp-676646,Tb2Zr8O19,2.3249999999999997,0
mp-14730,NaSiSbO5,2.8726000000000003,0
mp-630511,Ca2FeClO3,0.9904000000000002,0
mp-769277,Yb2TeO2,0.0,0
mp-1014873,NaLi2As,0.0,0
mp-2333,NdPd3,0.0,0
mp-677140,YAl6Si30(N15O)3,3.0805,0
mp-29645,Nb2Cr4Si5,0.0,0
mp-28400,P3Ru,1.1445999999999996,0
mp-767516,Li9Sb3S,0.0665,0
mp-1047865,MgNi3P3O13,0.0,0
mp-541557,Lu2Fe3Si5,0.0,0
mp-766348,BaCaI4,3.6308,0
mp-768081,Na2FePCO7,2.4379,0
mp-861538,Li2VO2F,1.814,0
mp-3264,Th(NiGe)2,0.0,0
mp-1047505,Ca3Ni3(AsO4)4,2.9326999999999996,0
mp-974650,Re2S2O13,2.3709,0
mp-505815,CsLa2CuSe4,1.0753999999999997,0
mp-24601,Al3Si2H3O10,5.476000000000001,0
mp-28529,KInBr3,2.2777,0
mp-18851,NaCr(WO4)2,2.2640000000000002,0
mp-865255,LuNbRu2,0.0,0
mp-19146,CrPbO4,2.0486999999999997,0
mp-23453,Hg6Sb5Br7,0.9445000000000001,0
mp-975468,RbAc3,0.0,0
mp-973924,Li(Mg4Al3)4,0.0,0
mp-770898,Ti3Nb2V3O16,1.1099999999999999,0
mp-20186,PrRuO3,0.0,0
mp-777780,Li3MnF6,1.3675,0
mp-18710,RbSm2Ag3Se5,1.0495999999999999,0
mp-978496,SiB4,0.0,0
mp-1048032,BaTl(SbO3)2,0.0,0
mp-769383,RbB3Te2O9,3.4368,0
mp-561095,LiHo3Ge2(O4F)2,4.1635,0
mp-555272,Na5Zr2F13,6.1043,0
mp-556721,Ba5Re3BrO15,2.54,0
mp-635456,EuCuBi,0.0,0
mp-975439,Mn3S,0.0,0
mp-1020107,LiCaAl3N4,3.0163,0
mp-764497,VFe2Ni3(PO4)6,0.0,0
mp-643260,Na2H4Pd,2.2472000000000003,0
mp-772823,Y2HfO5,3.8596,0
mp-541732,Al3Pb5F19,5.137600000000001,0
mp-1029655,Sr3WN3,0.0,0
mp-32023,LiMn2(PO4)3,0.0,0
mp-24992,FeHO2,0.8356999999999999,0
mp-768871,Bi6B10O21,1.1879999999999997,0
mp-754535,LaAgO2,2.8013,0
mp-23300,NdBi,0.0,0
mp-863015,EuH32C8N4Cl7,0.0,0
mp-30456,SrLiBi,0.5558000000000001,0
mp-971634,NaNiO2,0.0,0
mp-151,Tl,0.0,0
mp-762089,Na4SnH32(SeO4)4,2.1349,0
mp-541686,K3GaS3,2.7117999999999998,0
mp-675095,NbAgO2,0.0,0
mp-8119,PrCuSi,0.0,0
mp-1046501,Ba2Tl2Co3O10,0.0,0
mp-30926,LaB5O9,4.4878,0
mp-568177,CaAlSiH,0.3700000000000001,0
mp-760162,BiOF,3.2116999999999996,0
mp-866286,AcMg,0.0,0
mp-573541,Sm3(AlNi3)2,0.0,0
mp-17092,ScSnPd,0.0,0
mp-764647,Na8TiO6,2.0299,0
mp-4076,VCoSb,0.0,0
mp-542829,Ho5Si4,0.0,0
mp-21915,Ce3Co4Sn13,0.0,0
mp-1044715,Zn(CuO2)2,0.0,0
mp-561258,ZnS,2.0288,0
mp-763950,V3O5F,0.0,0
mp-645340,Nd(BO2)3,5.254899999999999,0
mp-22653,Eu(SiAg)2,0.0,0
mp-11570,TbSn3,0.0,0
mp-982013,Sr3Tm,0.0,0
mp-30506,CeHg2,0.0,0
mp-1044564,Al4Si2Ni13(SbO14)2,2.3476999999999997,0
mp-1049,SrAs,0.0123000000000002,0
mp-775327,Li2MnV3O8,1.5656000000000003,0
mp-768143,NaGePCO7,3.2699,0
mp-6241,LiGa(SiO3)2,4.3095,0
mp-1047076,Zn2CrIrO6,0.0,0
mp-561543,BeF2,7.9632,0
mp-771899,Ni4P2O9,3.2240999999999995,0
mp-560169,C(SN)2,0.5421,0
mp-555983,Er2SiO5,4.754099999999999,0
mp-15363,Li6Yb(BO3)3,0.0,0
mp-669354,LaNb2CuClO7,0.0,0
mp-616501,InCu6ClO8,0.0,0
mp-30910,Mg2Ga5Cu6,0.0,0
mp-669471,HgS4(NCl)3,1.8896,0
mp-142,Ga,0.0,0
mp-567391,Dy3Se3N,1.1709999999999998,0
mp-649492,V2PbO6,2.3433,0
mp-568228,RbLaSi(CN2)4,3.8548999999999998,0
mp-6467,Na2CuP2O7,0.49130000000000007,0
mp-554593,TbTaO4,4.1244,0
mp-1045693,Ca2Sn9O13,0.0,0
mp-17063,BaLaCuTe3,0.8203000000000005,0
mp-2349,YCd3,0.0,0
mp-720765,H3SNO4,5.0588,0
mp-850400,Na3(NiO2)2,0.0,0
mp-541141,K3IrCl6,1.9930000000000003,0
mp-31471,K3PbAu5,0.0,0
mp-10931,HoSF,1.2995999999999999,0
mp-8275,CdGeO3,1.4172,0
mp-13815,Rb2NaErF6,6.4981,0
mp-774032,LiCr2O4,0.4948999999999999,0
mp-31012,K2(NbBr3)3,1.0937000000000001,0
mp-640051,Pu2Ni2Sn,0.0,0
mp-761269,Li2AgF4,0.3751000000000001,0
mp-27403,LiUF5,0.2607999999999997,0
mp-28303,Na3SiSe4,1.7548000000000001,0
mp-865019,HfGaRh2,0.0,0
mp-19395,MnO2,1.0947,0
mp-866580,Ca2SnS4,0.8649000000000004,0
mp-782655,LiFeP(H6O5)2,3.8639,0
mp-782105,Na3SbH30S3N10,2.7218999999999998,0
mp-753387,Li2Cu3F8,0.3216,0
mp-705300,Cr(PO3)5,0.21760000000000002,0
mp-1432,Be2B,0.0,0
mp-18636,Ba3Sn5,0.0,0
mp-764968,InPH5NO5,3.5128000000000004,0
mp-554905,CaZnSi3O8,4.0893999999999995,0
mp-569402,VP,0.0,0
mp-567490,Hf5Re24,0.0,0
mp-1025781,Te4Mo2WSe2,0.05810000000000004,0
mp-780493,Li8CrO6,2.1344000000000003,0
mp-770627,Li2MnFeO4,0.17870000000000008,0
mp-2567,V3Si,0.0,0
mp-569776,TaNi3,0.0,0
mp-12896,NdAl4Co,0.0,0
mp-780137,Li3Mn4(BO3)4,0.7077,0
mp-861565,Mn7(OF3)3,0.5702,0
mp-28326,LiGaBr4,3.4374000000000002,0
mp-867169,Sr2SnHg,0.2697000000000003,0
mp-780303,Li4Fe3SbO8,1.2768999999999995,0
mp-777476,CrFe2(PO4)3,1.9992999999999999,0
mp-704688,Fe2C9(O4F)2,2.329,0
mp-1043839,LaMg(FeO3)2,0.0,0
mp-31249,La2Te4O11,3.3342,0
mp-20135,Na2Ca2Ta3O10,0.0,0
mp-763968,Li4V3Ni3(TeO8)2,1.3096,0
mp-977115,NaSrHg2,0.0,0
mp-6944,LiTiO2,0.0,0
mp-759882,AgBH8C4(N2F)4,3.7801,0
mp-770604,Li2CoH8(CO5)2,3.1877,0
mp-31288,La5Pb3I,0.0,0
mp-23690,CaH4SO6,5.6879,0
mp-769397,MgSO3,4.9784,0
mp-703305,Na2PHO4,4.7475000000000005,0
mp-21168,EuGa2,0.0,0
mp-628,Zr2Co,0.0,0
mp-30451,SrCuBi,0.0,0
mp-863250,TaMn2Ge,0.0,0
mp-582042,CdI2,2.4223,0
mp-779363,Cr4OF11,0.9148000000000001,0
mp-17446,PrPtF7,2.4352,0
mp-541094,Ta2Hg3S(O2F5)2,2.4414,0
mp-1029284,Te3MoWSe,0.3287999999999993,0
mp-20197,Cr2GaC,0.0,0
mp-9372,Ba2Cu(PO4)2,0.25849999999999995,0
mp-19215,CaCrO4,2.3678,0
mp-773418,Li2NiSnO4,1.4935999999999998,0
mp-706625,TeH5O6,0.4995,0
mp-772049,Li2Ti2O5,3.7603999999999997,0
mp-760747,Ti11O18,0.0,0
mp-1025810,Te2Mo2W(SeS)2,0.0,0
mp-610522,Mn2As,0.0,0
mp-753416,LiCuBO3,0.0,0
mp-814,DySe,0.0,0
mp-690536,Sr4Fe4O11,0.0,0
mp-8760,Dy5P12Ru19,0.0,0
mp-996968,AgBiO2,1.6797999999999997,0
mp-17120,Cs6K3AlSb4,0.6537000000000002,0
mp-768108,Na2FePCO7,2.4156,0
mp-557371,CaBi2B2O7,3.1706,0
mp-27301,Rb3Au3Cl8,0.8124,0
mp-24288,LuH2,0.0,0
mp-34656,Cd(CN)2,5.9948,0
mp-8204,LiAlB14,1.2527,0
mp-779989,Gd2P4O13,3.3476,0
mp-29873,Rb2CdCl4,3.1706,0
mp-1047705,CaCr2O4,2.1024000000000003,0
mp-754769,TiO2,2.2943,0
mp-27678,Y2Cl3,0.7587000000000002,0
mp-17532,Y3(Si3Os)4,0.0,0
mp-625468,Lu(HO)3,5.024900000000001,0
mp-1019087,CaSnHg,0.0,0
mp-27949,Si2H6O,5.2626,0
mp-7381,TbMg3,0.0,0
mp-1043894,CaLaFeCoO6,0.0,0
mp-770213,Li3Ti(BO3)2,0.6219000000000001,0
mp-561277,K2PbO3,1.1332,0
mp-6913,YN,0.7004999999999999,0
mp-559455,C2SNCl2F5,3.4123,0
mp-541854,Zr2(Co7B2)3,0.0,0
mp-561518,Mg2BiAsO6,3.3423999999999996,0
mp-21202,Sm3In,0.0,0
mp-978989,Tc7B3,0.0,0
mp-555424,CaNb2(P2O7)3,2.3702,0
mp-13199,Zn3TeO6,1.0627999999999997,0
mp-9908,Ba2Sb,0.0,0
mp-675379,Li2Ta2O3,0.0,0
mp-31417,Nd3TaO7,3.4829,0
mp-4120,CaCuAs,0.0,0
mp-780883,Mn3(OF2)2,0.11080000000000001,0
mp-21245,CePt,0.0,0
mp-867502,Eu2PtAu,0.0,0
mp-18411,Na3GeSe3,1.8880999999999997,0
mp-15599,K2Ca2(SO4)3,5.3165,0
mp-1047440,Ca2YVO5,1.5755,0
mp-3018,Nd(MnSi)2,0.0,0
mp-1047480,Ca(AgO2)2,0.6817,0
mp-989646,LaWN3,1.7100999999999997,0
mp-3370,Y2Sn2O7,2.7501000000000007,0
mp-780142,Li5(NiO2)4,0.0,0
mp-851110,Ba9La5I33,2.0466,0
mp-12523,YbPO4,0.0,0
mp-8781,SnS,1.8201,0
mp-1018667,CeTeCl,0.0,0
mp-765706,Li2VFeO4,0.9488000000000003,0
mp-767709,Li2Mn3Si3O10,2.5783,0
mp-863857,Mn3Co3(SbO8)2,0.5298000000000003,0
mp-778617,Ni3OF5,0.5882999999999999,0
mp-9812,ZnCO3,3.5639,0
mp-776150,ScAgO3,0.3578999999999999,0
mp-28677,BiS,0.0,0
mp-14017,K3Sb,0.39360000000000006,0
mp-641573,Cr21(MoC3)2,0.0,0
mp-1001827,IrC,0.0,0
mp-26725,LiSnPO4,2.5567,0
mp-568974,Ca(CuSn)2,0.0,0
mp-677638,Na27Ca3Al5(P2O7)12,4.7813,0
mp-24830,SiP3H29C10BrN,4.0491,0
mp-530701,Ni5(Mo3Se4)8,0.0,0
mp-28391,SiCl4,5.5541,0
mp-1048118,BaYTi4O7,0.0,0
mp-4459,Ce2Fe14B,0.0,0
mp-24126,Sr3Al2(HO)12,3.8858999999999995,0
mp-3804,Sr(PRu)2,0.0,0
mp-7748,NaAlO2,4.7292000000000005,0
mp-541754,TiCu2Te3,0.0,0
mp-755323,DyClO,5.168800000000001,0
mp-13400,Sm(CuGe)2,0.0,0
mp-971761,ZnSi3,0.0,0
mp-29043,Hg4Sb2I3,0.7146000000000001,0
mp-568904,KTh(SbSe3)2,0.6898,0
mp-570934,NdPt,0.0,0
mp-1027916,Te2Mo3WS6,0.0,0
mp-753719,SrLiNb2O6F,1.7698999999999998,0
mp-1002063,SnS2,1.865,0
mp-542522,Bi14PdBr16,1.1683,0
mp-685216,Nb12TlTe16,0.0,0
mp-646392,Dy3Co,0.0,0
mp-973958,KRuO3,0.0,0
mp-7863,Rb2Sn2O3,1.2253000000000003,0
mp-28932,Sn4OF6,3.2029,0
mp-5601,HoCoSn,0.0,0
mp-31050,Cl2O7,3.6565000000000003,0
mp-753401,Sc2TiO5,3.1323000000000003,0
mp-558807,ZnAgPS4,2.1933999999999996,0
mp-763790,Mn(PO3)3,1.0864,0
mp-2363,HfMo2,0.0,0
mp-9391,TaNi2Te3,0.0,0
mp-16118,RbDy2CuSe4,0.9258000000000002,0
mp-558302,Bi5BrO7,2.808,0
mp-560767,KNaTiO3,3.5351999999999997,0
mp-10469,NbSiPt,0.0,0
mp-754542,LiVS2,0.0,0
mp-531459,MgAl2O4,3.3267000000000007,0
mp-554395,Na5Li3(TiS4)2,2.2479,0
mp-1009547,CsRbAs,0.0,0
mp-770642,Li2MnSO4F3,1.677,0
mp-764224,Li2V2O5F2,2.4443,0
mp-758316,La10Bi8O27,1.2729,0
mp-768426,Ba2YI7,2.638,0
mp-4014,Pr(CuSi)2,0.0,0
mp-558399,P3RuO9,0.0,0
mp-1030721,Te3Mo2Se,0.16480000000000006,0
mp-768093,VSO4F3,0.9282999999999999,0
mp-541249,LaSiAs3,0.0,0
mp-972889,ScSn3,0.0,0
mp-972071,V3Mo,0.0,0
mp-1045432,Li(CrS2)2,0.0,0
mp-1042624,MgVBiO5,2.9565,0
mp-1020606,SrBe2(PO4)2,5.7435,0
mp-775214,LiVCuO4,0.0,0
mp-849474,Li2Mn5(CuO6)2,0.06130000000000013,0
mp-705134,In2(MoO4)3,3.7072000000000003,0
mp-28109,SbAsO3,3.5024999999999995,0
mp-569349,Rb2HgPSe5,1.3726000000000003,0
mp-1049220,LaZnCrCoO6,0.0,0
mp-774249,Li3MnCr2O6,0.5482999999999998,0
mp-621953,ReC4IO4,2.3533,0
mp-5114,K6HgS4,1.7161,0
mp-6122,Ba2NdSbO6,3.7321000000000004,0
mp-29374,KGaSb4,0.2906000000000004,0
mp-775301,LiV(Si2O5)3,2.0867,0
mp-754717,RbBrO4,3.0694,0
mp-542584,EuTl,0.0,0
mp-568240,Zn3As2,0.17989999999999995,0
mp-28719,Ba(AuF4)2,2.5324,0
mp-558126,LaH4S2NO8,4.4517,0
mp-561076,La3GaS5O,1.1964999999999995,0
mp-1860,LaSi,0.0,0
mp-28408,KTcCl3,1.6961,0
mp-6525,NaSn2(PO4)3,3.3552,0
mp-12695,CaMg2Ni9,0.0,0
mp-1046429,Nb2Zn2SbO8,0.0,0
mp-557236,Te2As2Se8S(OF6)2,1.3994,0
mp-850556,La3Nb8O24,0.0,0
mp-772309,Li3Ti(CuO2)4,0.0,0
mp-12411,Li2ZnGe,0.0,0
mp-12427,Sr2TaGaO6,4.0418,0
mp-559068,Na2Pd(SeO4)2,1.596,0
mp-6599,KNb(CuSe2)2,1.4204999999999999,0
mp-2008,FeAs2,0.2801999999999998,0
mp-695409,Ba7Na3Ti7Nb3O30,1.1139999999999999,0
mp-16731,YP,0.0,0
mp-10935,NaErPO4F,5.5176,0
mp-1041714,ZnSnP2O7,2.8288,0
mp-557626,Gd2TiO5,2.9501999999999997,0
mp-7138,YbSb2,0.0,0
mp-772217,ErInO3,1.9560000000000004,0
mp-618929,Ni2GeP,0.0,0
mp-949,CoPt,0.0,0
mp-867748,ScSnRu2,0.0,0
mp-760650,Li3Bi(PO4)2,3.4539000000000004,0
mp-1045812,CaFe(PO3)4,4.2911,0
mp-504594,ZrBr,0.0,0
mp-778811,Li2Fe(BO3)2,0.0,0
mp-505540,TiAsRh,0.0,0
mp-8251,VP4,0.0,0
mp-17455,K7Ta(SO4)6,3.6873,0
mp-3978,SrSiO3,4.6251,0
mp-780440,Li8MnFe7(BO3)8,3.1364,0
mp-2343,Mg2Sn,0.0,0
mp-569421,Hg9P5I6,1.3431000000000002,0
mp-10711,VSi2,0.0,0
mp-567830,Sm(CrSi)2,0.0,0
mp-32640,La5S8,0.0,0
mp-8609,Li6UO6,2.1685,0
mp-1027382,TeMoWSeS2,0.5877000000000003,0
mp-27729,ICl3,1.7688,0
mp-862965,PmTlAu2,0.0,0
mp-1027391,MoWSeS3,0.5973999999999999,0
mp-2090,FeCo,0.0,0
mp-27975,NdBr3,2.9211,0
mp-756238,Sr2CaI6,3.9625999999999997,0
mp-1018160,PmN,0.0,0
mp-989637,BaReN3,1.7855000000000003,0
mp-709074,FeH16C4(NCl2)2,0.001100000000000101,0
mp-770707,Li2AlFeO4,3.0695000000000006,0
mp-997004,CaAgO2,0.0,0
mp-19829,YbCrSb3,0.0,0
mp-1042208,BaTaCuO5,0.0,0
mp-767972,Li2Fe3NiO8,0.0,0
mp-568703,Pr(NiSb)2,0.0,0
mp-644492,LuNbO4,3.3963000000000005,0
mp-755405,SrNd2O4,3.4215999999999998,0
mp-775019,CoSb(PO4)2,0.0,0
mp-772628,Li3V(BO3)2,2.3124000000000002,0
mp-733590,TlCuHCO4,0.3826999999999998,0
mp-1030518,TeMoWSeS2,0.0,0
mp-5132,YPO4,5.8009,0
mp-763903,V3OF11,1.9343,0
mp-25082,Mo(CO)6,3.1536,0
mp-5475,NaTaN2,1.2820999999999998,0
mp-773900,BaCa2I6,3.6368000000000005,0
mp-541201,TlCuPO4,0.008199999999999985,0
mp-669521,Nb3Te4ClO15,2.3493000000000004,0
mp-4950,KCaF3,6.1391,0
mp-21751,Nb3InSe12,0.0,0
mp-976799,Ni3Bi,0.0,0
mp-22140,PuPd,0.0,0
mp-1046310,CaCoO2,1.6793999999999998,0
mp-975179,RbTlO3,0.0,0
mp-560125,HgCS(OF)3,3.3526,0
mp-570314,CdI2,2.3605,0
mp-566960,PdC2S2(O4F)2,2.4461,0
mp-866005,Dy2TlCd,0.0,0
mp-700,GeSe,0.8988,0
mp-2750,Cr2Te3,0.0,0
mp-17854,LiInGeO4,2.2777999999999996,0
mp-18969,FeCO3,0.0,0
mp-865114,NaDyTl2,0.0,0
mp-755796,Li2FeS2,0.0,0
mp-1019082,RuN2,0.0,0
mp-1828,ThOs2,0.0,0
mp-493,Co2B,0.0,0
mp-31468,LiCaN,1.3784999999999998,0
mp-557829,Lu2Te5O13,3.0335,0
mp-753397,Ga2CuO4,0.0,0
mp-1047017,Zn(SbO2)2,0.6042999999999994,0
mp-768450,Tm3Sb5O12,3.1088999999999998,0
mp-568289,CdI2,2.3663,0
mp-15078,SiO2,5.6346,0
mp-570591,CsHgCl3,0.0,0
mp-758281,RbB2P2HO9,5.7824,0
mp-1025769,Te4Mo3S2,0.0,0
mp-540808,S4N4O3,1.5265999999999997,0
mp-1027078,TeMoWS3,0.0,0
mp-697913,HfP2(H3O5)2,5.2369,0
mp-705528,NaCaB5H8O13,4.884399999999999,0
mp-10204,MnSe,0.0,0
mp-556934,KNaSiF6,6.980499999999999,0
mp-971921,TbSmHg2,0.0,0
mp-1029945,Te2MoWSeS,0.0,0
mp-8370,Ni3GeC,0.0,0
mp-567983,ErCuPbSe3,1.1376999999999997,0
mp-561487,Te4As2S(OF6)2,1.1831,0
mp-335,BaGa4,0.0,0
mp-849498,Li5Mn6(BO3)6,0.0,0
mp-684470,Li3Sn2P5O16,4.0922,0
mp-768684,Ce(ClO4)3,0.0,0
mp-1028911,Te2MoW3(Se2S)2,0.0,0
mp-33338,LiGa3Te5,1.041,0
mp-30499,Th6Cd7,0.0,0
mp-754989,Er(BiO2)3,2.0482,0
mp-14500,Sr(As3Pt2)2,0.1305000000000005,0
mp-18687,NbF5,4.566199999999999,0
mp-17834,La2SiSeO4,2.3068999999999997,0
mp-998366,RbSeBr3,0.0,0
mp-1048371,BaCr4O7,0.8137999999999999,0
mp-2762,YIr2,0.0,0
mp-19115,CaFeO3,0.0,0
mp-768161,LiSiPCO7,5.7639,0
mp-31469,Hf5CuSn3,0.0,0
mp-643346,Al2Ge(HO3)2,3.8791,0
mp-21580,EuSnF7,0.010199999999999987,0
mp-1521,Sb7Mo3,0.0,0
mp-16789,Yb2S3,0.0,0
mp-776692,LiFe2F7,3.081,0
mp-695202,Mg4Al9Cu(SiO4)9,1.9945000000000004,0
mp-556601,BiBPbO4,2.8760000000000003,0
mp-10675,Ti3AlN,0.0,0
mp-694922,BaLa5TiCr5O18,1.9947,0
mp-562263,Cs2PbO2,1.8593000000000002,0
mp-768088,Mn2Si4O11,1.0968999999999998,0
mp-18572,KEr(PO3)4,5.2945,0
mp-866096,HfZnCo2,0.0,0
mp-8073,AsPd2,0.0,0
mp-554164,KLiZnP2O7,4.2904,0
mp-18482,Yb4Al23Ni6,0.0,0
mp-753799,CsTmO2,2.7783999999999995,0
mp-13274,Na4CO4,2.1989,0
mp-505351,Na3(FeS2)2,0.0,0
mp-569744,UAl2,0.0,0
mp-530409,Hf3(Bi5Cl9)2,0.0,0
mp-16726,LiB,0.0,0
mp-774105,Ca5Ge3O11,3.3456,0
mp-560348,K6Nb4S25,1.5194,0
mp-556524,Nb2Sn2O7,0.8633000000000006,0
mp-6113,LiTiAsO5,3.1654000000000004,0
mp-570920,Ga5Fe6,0.0,0
mp-684508,LiSb2(PO4)3,2.0471,0
mp-557019,RbErSeCl2O3,4.3116,0
mp-30790,ZrMo3,0.0,0
mp-696878,K3CaP2HO8,4.9617,0
mp-5005,Mg3(BO3)2,5.143,0
mp-11033,TbAl7Au3,0.0,0
mp-615760,Ba5(InSb3)2,0.0,0
mp-1016827,MgGeO3,1.0860999999999992,0
mp-561514,NaSrB5O9,5.2309,0
mp-31459,TaCoSb,0.0,0
mp-10559,Gd3AuO6,1.5063,0
mp-570589,SeBr,1.5061,0
mp-1044935,ZnSb2P2O9,3.6521999999999997,0
mp-23768,AlZnH4O2F5,5.0567,0
mp-769543,Li3Mn2(SiO4)2,0.0,0
mp-767053,Li2Co(CO3)2,2.3682999999999996,0
mp-556303,CuBi2(SeO3)4,0.5594000000000001,0
mp-1018808,MgCoGe,0.0,0
mp-30853,Tl2Pt3,0.0,0
mp-1042435,Ba2AlCu3O8,0.0,0
mp-775269,LiFe2(BO3)2,0.0,0
mp-29715,TeWBr9,0.0,0
mp-20526,PbS,2.0909000000000004,0
mp-866127,LuTaOs2,0.0,0
mp-764957,Li2CoSiO4,2.7567,0
mp-27441,Au2Se4O11,1.4326,0
mp-23476,Cd7(P2Cl3)2,1.7985,0
mp-5461,Rb3TaO8,2.9856,0
mp-752888,Li2CuSiO4,0.0,0
mp-5811,CsPbF3,2.9248000000000003,0
mp-2832,Cr2Se3,0.0,0
mp-662565,K3Yb(SO4)3,0.7217,0
mp-672715,Ba7(Fe3S7)2,0.0,0
mp-770857,V(SbO3)4,1.1530000000000005,0
mp-9130,CrSbS3,0.5817999999999994,0
mp-1040784,Ca(MoO2)2,1.6191999999999998,0
mp-769518,Na3Mn2P2(CO7)2,0.1291,0
mp-1020179,Na6Si2O7,3.3129999999999997,0
mp-27543,As4S3,2.3035,0
mp-558801,K2Pr4Cl9O2,0.4474999999999998,0
mp-560513,Gd3Si2Cl5O6,2.531,0
mp-573721,Cs2SiAs2,1.0347,0
mp-2369,SnPd,0.0,0
mp-1047894,BaMgFeF7,3.7146999999999997,0
mp-690004,LiCo(PO3)4,0.8352999999999999,0
mp-973681,LuRhO3,0.0,0
mp-28074,RbPaF6,3.984,0
mp-555421,Na3TmSi2O7,3.9610000000000003,0
mp-862698,Ac2SiAu,0.0,0
mp-977374,LiLuPd2,0.0,0
mp-772920,Li8Ti2O7,0.7655000000000003,0
mp-768164,LiGePCO7,3.789,0
mp-641689,Ce6In5Pd12,0.0,0
mp-572131,SbS8Cl5O,1.4808000000000001,0
mp-10779,RbNdSe2,1.8958,0
mp-16432,Sr3(BO3)2,4.3938,0
mp-758357,Li3Ti3(PO4)4,0.0,0
mp-3833,Mg(AlSi)2,0.0,0
mp-10321,La2ZnRhO6,0.0,0
mp-631383,MnCrRe,0.0,0
mp-778072,Ba2Y5F19,6.1194,0
mp-555866,K6Be4C6O19,4.8084,0
mp-570259,MgCl2,5.5713,0
mp-978303,Mg3Re,0.0,0
mp-31039,Rb6Te2O9,0.8486999999999998,0
mp-776371,Li2Nb2(PO4)3,0.0,0
mp-15571,K3AuSe2,2.0531,0
mp-759704,Li2Cu2P4O13,0.22040000000000015,0
mp-628690,SbN6Cl,0.5765,0
mp-561428,NiF3,0.0,0
mp-30550,AlAu2,0.0,0
mp-752405,Dy2SiO5,4.7218,0
mp-973970,Li(Mg4Al3)4,0.0,0
mp-1041957,AlW3O8,1.9247999999999998,0
mp-1046576,SrZnP2WO8,1.9573999999999998,0
mp-27710,CrB4,0.13060000000000027,0
mp-5553,Nd(CoB)2,0.0,0
mp-769532,Na4V2C4SO16,0.44399999999999995,0
mp-866158,YLuMg2,0.0,0
mp-34011,Ca(HoS2)2,2.1913,0
mp-676156,Gd5AgS8,1.1215000000000002,0
mp-768141,Na2DyPCO7,4.5321,0
mp-980196,YbTm3,0.0,0
mp-22262,CoMoP,0.0,0
mp-574663,CdI2,2.4303000000000003,0
mp-1029059,Te4MoW3(SeS)2,0.006199999999999761,0
mp-765615,Li6Fe5SbO12,0.5689000000000002,0
mp-6268,KTiPO5,3.0442,0
mp-557362,AlPO4,5.5478000000000005,0
mp-18614,In3Rh,0.0,0
mp-704915,Na2Ni2(B4O7)3,3.7639000000000005,0
mp-1046565,Sr2YGaCo2O7,0.13590000000000035,0
mp-642975,CrBi12Mo4PbO34,2.5084000000000004,0
mp-626865,H2WO5,2.4402000000000004,0
mp-1041634,CaTiP2O7,0.19280000000000008,0
mp-23288,AlBr3,4.0967,0
mp-22857,CrCl2,0.7019000000000002,0
mp-31386,HoGaPd,0.0,0
mp-27726,SO2,2.8367999999999998,0
mp-687096,V2Cu2O7,0.026000000000000023,0
mp-770036,Li4Mn3V2Cr3O16,0.6577999999999999,0
mp-2606,BaPd5,0.0,0
mp-21460,CeIn2Pd,0.0,0
mp-570657,Mg2Si,0.0,0
mp-27281,LiH3O2,4.741,0
mp-775808,MgO,3.4114000000000004,0
mp-28146,LiGa5O8,2.5222999999999995,0