mp_id,formula,band_gap,fidelity
mp-28987,NaPt2Se3,0.9887000000000001,0
mp-1029850,K15Cr7N19,0.6508,0
mp-255,NaHg,0.0,0
mp-1041737,Zn2BiWO6,1.9904999999999995,0
mp-1029275,SrZrN2,1.2165999999999997,0
mp-567471,HgI2,1.3495,0
mp-569,NdCo5,0.0,0
mp-976221,K3Sm,0.0,0
mp-766163,TiSn9O20,1.1262999999999996,0
mp-5942,NaAsS2,1.7428000000000001,0
mp-744554,K2FeP2H3(O4F)2,0.4448000000000001,0
mp-557773,Sc2TeO6,2.8859999999999997,0
mp-9178,CdSe2O5,2.8994,0
mp-33803,Nd2Mo2O7,0.0,0
mp-768042,Na2FePCO7,2.4519,0
mp-1045836,Ba2MgFe2CuF14,0.8679,0
mp-756426,ZrNbO4,0.0,0
mp-754341,Ho2TeO6,3.1026,0
mp-531195,Sr2NF,1.2984,0
mp-14972,Ba3Sc(BO3)3,3.4741999999999997,0
mp-972066,ZrAlO3,0.0,0
mp-29254,PrIO,3.6584,0
mp-569128,SiB3,1.4080000000000004,0
mp-504818,MoPO5,2.4078,0
mp-555160,CsYSeCl2O3,4.4032,0
mp-567714,Rb2AgBr3,2.6666,0
mp-558982,HgC2O2F3,3.2547,0
mp-735512,CrH17N4Cl2O3,3.7042,0
mp-562230,Rb3(Cu4S3)2,0.0,0
mp-542245,Yb2PbAu2,0.0,0
mp-865354,Tm2IrPd,0.0,0
mp-567630,Pr,0.0,0
mp-9761,ReO3,0.0,0
mp-20648,V2C,0.0,0
mp-1047613,TiAl(WO4)2,0.2755000000000001,0
mp-759534,LiBi2(SO4)3,0.5619000000000001,0
mp-674708,Rb4N4O3,0.0,0
mp-5773,BaRuO3,0.0,0
mp-973068,ScCuO3,0.0,0
mp-686001,Ce2Nd2O7,1.6430000000000002,0
mp-557715,Cd(AuF6)2,1.8022,0
mp-778512,LiFeF4,0.0,0
mp-4755,Sc3Fe2Si3,0.0,0
mp-766204,ZnPH5C2N4O3,4.6202,0
mp-2302,AsRh2,0.0,0
mp-19154,Ba(FeO2)2,1.7429000000000001,0
mp-867176,PrCdAu2,0.0,0
mp-10740,Pa,0.0,0
mp-557619,Bi14Te13S8,0.5462999999999996,0
mp-567824,K2NaCo(CN)6,4.3382000000000005,0
mp-19023,YbCrO4,2.3211,0
mp-758269,Ba8In6O17,0.7284999999999999,0
mp-1002187,TcB,0.0,0
mp-9497,Pr2C(NO)2,3.7169999999999996,0
mp-866826,CaSnS3,1.6173000000000002,0
mp-1042278,PrZn(CuO3)2,0.0,0
mp-12410,Ba2TbIrO6,0.0,0
mp-29063,ThZrF8,5.6773,0
mp-23719,BeAlH5,3.2039999999999997,0
mp-973141,ScCdCu2,0.0,0
mp-1021419,CsMg6Ti,0.0,0
mp-560833,B3Pb6ClO10,2.816,0
mp-1046566,Sr2AlCr2GaO7,1.1645000000000003,0
mp-568627,Rb4TmI6,0.0,0
mp-567276,TaV2,0.0,0
mp-771174,Ba2B2O5,3.8166,0
mp-19922,LuNiGe,0.0,0
mp-774335,Sn2P2O7,3.1008000000000004,0
mp-1045420,Mg(TiS2)2,0.0,0
mp-531611,Mg(AlB14)2,0.7667999999999999,0
mp-13008,NdCrGe3,0.0,0
mp-608366,CuN6,0.0,0
mp-861726,PuBiPd2,0.0,0
mp-867801,La2AgSn,0.0,0
mp-752596,YbSmO3,0.0,0
mp-774389,Li4MnV3(P2O7)4,0.31710000000000016,0
mp-1044938,LaMgCrWO6,1.8060999999999998,0
mp-675834,La3O2F5,3.5752000000000006,0
mp-27661,U2Cl5O2,0.0,0
mp-780480,Li11V6O5F19,0.0,0
mp-1048264,CaNiO2,2.0118,0
mp-2961,MgSiP2,1.3728000000000007,0
mp-760165,LiCu2(PO3)5,0.10329999999999995,0
mp-889,Cr3B4,0.0,0
mp-800,TmB2,0.0,0
mp-27664,TiPCl9,2.1639,0
mp-625886,Ta2H4O7,2.8627,0
mp-8447,K5Ti3F14,0.0,0
mp-626169,U(HO2)2,1.8922999999999999,0
mp-986716,Sr3N2,0.3481000000000001,0
mp-752400,Ce2Sm2O7,2.0294999999999996,0
mp-12063,Ce(AgGe)2,0.0,0
mp-703545,SbH6C(NCl2)3,1.5847,0
mp-1007666,HoAu,0.0,0
mp-625641,H9BrO4,4.17,0
mp-9298,Sr(AuO2)2,1.5705999999999998,0
mp-12735,KAg2,0.0,0
mp-531590,SrAl22O34,4.4761,0
mp-568991,Hf2Al4C5,0.0,0
mp-866171,YMgAu2,0.0,0
mp-569435,KBi(PSe3)2,1.614,0
mp-29551,Na3Hg,0.0,0
mp-755570,Li(NiS)2,0.0,0
mp-998929,K2O,1.8499999999999999,0
mp-555284,Ba2NdAlO5,3.6856,0
mp-569818,Er3Si3Ni,0.0,0
mp-865361,Tm2MgOs,0.0,0
mp-698405,AgH12C4S5N,1.8217,0
mp-559644,K2Cu(PS3)3,1.9435,0
mp-766548,Li4Ti11O24,2.5241,0
mp-7756,SrLiSb,0.6857999999999995,0
mp-12631,SrTcO3,0.0,0
mp-775823,Zr2N2O,1.6481,0
mp-770689,Li2MnAl2O6,1.9548999999999994,0
mp-18797,Yb2V2O7,0.0,0
mp-1045770,YFe4(CuO4)3,0.0,0
mp-645799,VP2Pb2O9,2.2786,0
mp-353,Ag2O,0.0,0
mp-676956,Zn8B4H3O15F,3.0045,0
mp-766835,InP(H2O3)2,3.8611000000000004,0
mp-972924,La(Mg4Al3)4,0.0,0
mp-983581,Er2PdRh,0.0,0
mp-632693,Zr5(In2Rh)2,0.0,0
mp-16723,Y3Al2,0.0,0
mp-758329,YbCO3,4.696,0
mp-980034,Yb3Mg,0.0,0
mp-7140,SiC,2.3028000000000013,0
mp-685194,Li4Ti5O12,2.6703,0
mp-4767,Ce(SiOs)2,0.0,0
mp-29246,Cd2P3Cl,1.1977000000000002,0
mp-753605,LiCuS,0.9218000000000002,0
mp-23653,Na3MgC2ClO6,4.1751,0
mp-752411,Tm2Pb2O7,0.9136999999999995,0
mp-7104,CsCaF3,6.8717,0
mp-15385,Na2UP2O9,2.1752000000000002,0
mp-706278,CaP2(H2O3)3,5.5328,0
mp-5279,Ca3TeO6,3.2468999999999997,0
mp-32633,Dy6Se11,0.5317000000000007,0
mp-676889,Ba11(Ta3S13)2,0.5819999999999999,0
mp-13470,Zr3Al2,0.0,0
mp-975073,NdAu3,0.0,0
mp-9924,Te,0.0,0
mp-10348,LaSc3(BO3)4,4.1081,0
mp-779308,SrLiLa7(CoO8)2,0.5669000000000004,0
mp-979985,YbAu3,0.0,0
mp-8851,BaCuP2O7,0.3489,0
mp-24456,SrH2N2O5,2.2801,0
mp-620364,CaSmCuClO3,0.0,0
mp-20995,Eu4As3,0.0,0
mp-1960,Li2O,4.8986,0
mp-862262,LaCdHg2,0.0,0
mp-996960,AgNO2,1.4209999999999998,0
mp-763983,V2O3F,1.2266999999999997,0
mp-978558,SmErRh2,0.0,0
mp-23634,KSbClF3,4.4254,0
mp-29048,Sr(BiO2)2,2.5577,0
mp-778700,Li2FeF4,3.6247,0
mp-631455,HfSi2Br,0.0,0
mp-14205,K3Cu3As2,1.2804,0
mp-1982,Al21Pt8,0.0,0
mp-19287,NaV(SiO3)2,2.0001999999999995,0
mp-770619,Li24Mn11CrO36,1.2342000000000002,0
mp-1049207,HoMg(BiO3)2,0.0,0
mp-973261,Mg2SnO4,1.9033999999999995,0
mp-2837,PrCo5,0.0,0
mp-15500,Sr4TiP4,1.432,0
mp-776532,HfO2,3.9024999999999994,0
mp-560028,UTe6(OF5)6,2.2523,0
mp-755148,CuSb(PO4)2,0.0,0
mp-560198,ZnTe6O13,2.9724000000000004,0
mp-1008688,Ti2Sn,0.0,0
mp-756451,CaPbI4,2.8871,0
mp-1046192,Sn5(TeO6)3,0.3612000000000002,0
mp-13568,NdS2,0.3370999999999995,0
mp-4525,SrRuO3,0.0,0
mp-1042597,Zn(MoO2)2,0.3429000000000002,0
mp-30718,K5Hg7,0.0,0
mp-650538,W2C7Br4O7,1.8225,0
mp-804,GaN,1.7433,0
mp-641678,XeF6,2.5383,0
mp-8773,K3CO3F,3.8463,0
mp-139,Sr,0.0,0
mp-559766,Cs3LiF4,5.6548,0
mp-558301,SiO2,5.440799999999999,0
mp-684011,Eu8C4I9N7,0.6649000000000003,0
mp-771977,TmAsO4,3.5505,0
mp-2520,TmSb,0.0,0
mp-722485,SrP2(H2O3)3,5.3385,0
mp-777396,Li2Mn3FeO8,0.8681000000000001,0
mp-998713,TlInCl3,1.5596999999999999,0
mp-776657,Li2Fe3F8,3.0159000000000002,0
mp-636978,KCuCl3,0.24149999999999994,0
mp-753957,Ce4ThO8,0.0,0
mp-761530,Fe(CoO3)2,0.0,0
mp-5757,CeB2Rh3,0.0,0
mp-976744,LiEr2Tl,0.0,0
mp-8716,K2MnSe2,0.9895,0
mp-975411,RbBr3,0.0,0
mp-2591,Ti3O,0.0,0
mp-3468,NaAsO2,3.7311,0
mp-558984,GaTeO3F,3.7078,0
mp-616577,Sr3BCNCl2,1.8787999999999996,0
mp-1046462,SrMn(PO4)2,0.32399999999999984,0
mp-753945,ClOF3,3.6498999999999997,0
mp-9969,ScSi,0.0,0
mp-540728,K2Zn6O7,0.7588000000000001,0
mp-1042899,Ca2Fe3O8,0.0,0
mp-28897,BIrPd,0.0,0
mp-1020714,Y4AlSiNO8,3.7659000000000002,0
mp-1048511,Ba2Mn3O7,0.0,0
mp-675111,CeAgP2,0.0,0
mp-17909,SiO2,5.7313,0
mp-774462,LiFePO5,0.0,0
mp-1009655,CaC2,0.0,0
mp-1041684,MgTiP2O7,0.0931999999999995,0
mp-19206,LiLa4CoO8,0.15639999999999965,0
mp-555464,KRb2NiF6,0.0,0
mp-698494,K2BiH5(CO2)5,4.112,0
mp-18910,BaV4O9,1.0483000000000002,0
mp-696075,Ca2H2S2O9,5.1689,0
mp-21481,Pr3Pb,0.0,0
mp-989400,Rb2NaGaF6,5.9026,0
mp-557579,LaS,0.0,0
mp-8938,Si2Mo,0.09379999999999988,0
mp-1028823,MoW3Se8,1.0016999999999996,0
mp-23316,BCl2,2.9181,0
mp-19913,Ba3(InP2)2,1.1092,0
mp-764005,Li4TiV3O8,0.5875000000000004,0
mp-554063,SmSeClO3,4.3959,0
mp-15011,NaBS2,2.5622999999999996,0
mp-686037,U7Cd3O20,0.0,0
mp-973339,Lu3Th,0.0,0
mp-989542,Ba6Tl2NCl,0.0,0
mp-560725,ZnS,2.0215,0
mp-1048396,FeP2O7,0.3708,0
mp-557748,SbIrC2(OF3)2,2.4943,0
mp-11833,UCuGe,0.0,0
mp-1018021,NbCo3,0.0,0
mp-569167,Nb4N3,0.0,0
mp-775238,LiFe2(BO3)2,1.4749999999999999,0
mp-776239,Zr2N2O,1.5627999999999997,0
mp-33255,Ni15O16,0.0,0
mp-29662,TlBiSe2,0.2322999999999995,0
mp-975738,Pr(BOs)2,0.0,0
mp-756166,LaHoO3,4.3854999999999995,0
mp-631563,TlCoAs2,0.0,0
mp-555079,ZnS,2.0199999999999996,0
mp-556661,Y2SiCO7,4.7772,0
mp-9605,Hf3Si3Ni2,0.0,0
mp-23947,Cs3MgH5,2.6053,0
mp-568802,KBi(PSe3)2,1.7577,0
mp-651051,Te2W3(CO)15,1.2205,0
mp-775275,Mn3Sb(PO4)6,0.0,0
mp-861982,PaGa3,0.0,0
mp-542688,LaH6Au3C6(N2O)3,2.1416999999999997,0
mp-754469,Er2TeO2,0.5423999999999998,0
mp-773113,H12RuSN4(ClO)2,1.9291,0
mp-20879,CaHgPb,0.0,0
mp-570767,PrBC,0.0,0
mp-3191,Ho(FeSi)2,0.0,0
mp-989629,CsRb2GaF6,5.539300000000001,0
mp-568942,Lu5NiPb3,0.0,0
mp-540701,V3As2,0.0,0
mp-569715,CuBi(PSe3)2,0.6481000000000003,0
mp-21087,UAs,0.0,0
mp-759873,Sb8O11F2,2.25,0
mp-568788,La2AlNi9H2,0.0,0
mp-974392,HoB4Ru,0.0,0
mp-1042552,Ca2Bi3O8,0.0,0
mp-771049,Li2CoBO4,1.3633,0
mp-28296,Ba3GaSb3,0.34189999999999987,0
mp-550514,LaTaN2O,0.6712999999999996,0
mp-30753,LaPd5,0.0,0
mp-558798,BiPO4,3.6895000000000002,0
mp-568735,SiC,1.9979999999999993,0
mp-568385,SrLiGaN2,1.8413,0
mp-972630,SmErZn2,0.0,0
mp-8965,K2Sn2S5,1.399,0
mp-772191,Tm2TeO6,3.0533,0
mp-862839,Pr10C4Br15,0.0,0
mp-22922,AgCl,0.9539000000000002,0
mp-8830,NaRhO2,1.3773999999999997,0
mp-971857,Zn3C,0.0,0
mp-11515,NbRh,0.0,0
mp-768987,Li8BiO6,0.0,0
mp-570875,Ga2Os,0.6661000000000001,0
mp-743878,Fe2Te4H3ClO12,2.0646,0
mp-1042747,NiAs2O7,0.48239999999999994,0
mp-560777,K3Hg3S2Cl5O6,2.3158,0
mp-559691,Ca2Al2SiO7,4.284800000000001,0
mp-768988,Li4Bi2O5,2.7704,0
mp-29725,YBRh3,0.0,0
mp-27522,K2Zr2O5,3.8226,0
mp-756213,Li8BiS6,0.0,0
mp-1025583,Te2Mo(WSe2)2,0.0,0
mp-1046656,ZnCoSiO5,0.0,0
mp-17868,NaAsO3,2.8378,0
mp-1041502,MgCr2O4,2.1046000000000005,0
mp-780188,Li6Fe5O12,0.0,0
mp-976578,NdH3,0.0,0
mp-779571,La3B5O12,3.8196,0
mp-540721,NaB5H10O13,5.6657,0
mp-561418,Zr3O,0.0,0
mp-555960,SiO2,5.3454,0
mp-17155,La3AgSnSe7,1.2989000000000006,0
mp-979955,Yb3Mn,0.0,0
mp-776654,Li7V5O12,1.1547,0
mp-2853,GaN,0.3945999999999996,0
mp-567116,YbRu,0.0,0
mp-6562,Ba2CuHgO4,0.0,0
mp-1018630,Ca(BeAs)2,0.6618999999999993,0
mp-766345,Y5O4F7,5.2002,0
mp-567864,TlBi(PSe3)2,1.3847,0
mp-23147,Na4Al3Si3BrO12,4.609800000000001,0
mp-1027627,TeMo2SeS2,0.0,0
mp-555028,AgSbTe6S16(OF5)6,0.8025,0
mp-27662,CsI2Br,1.9762,0
mp-22672,CeC,0.0,0
mp-4864,CaMgSn,0.0,0
mp-1047245,Sr2YFe2O7,0.0,0
mp-1030270,TeMoWS3,0.4432999999999998,0
mp-627209,VHO3,0.0,0
mp-20754,LiCeSn2,0.0,0
mp-697796,Li2Cr5(PO4)4,2.3366999999999996,0
mp-861257,Tb3SbO7,2.9631999999999996,0
mp-9910,K2Pd3S4,0.4969000000000001,0
mp-767011,Li7Mn3(SiO6)2,1.2906000000000004,0
mp-11302,HoCd3,0.0,0
mp-770685,Li4Mn3Ni3(SbO8)2,0.0,0
mp-722315,ZnH3CNO3,3.519,0
mp-754192,Tm2TiO5,3.0448000000000004,0
mp-12564,LiSbAu,0.0,0
mp-21023,Ti3SnC2,0.0,0
mp-5177,LuSnAu,0.0,0
mp-996964,CdAgO2,0.0,0
mp-770725,RbLi2Mn2(BO3)3,0.5117,0
mp-11703,KSbS2,1.5969000000000002,0
mp-755366,LiCu2PO4,0.4894000000000007,0
mp-21263,PuSb,0.0,0
mp-31503,Mg9Sn5,0.0,0
mp-23321,Sr4Cl6O,4.5588999999999995,0
mp-29371,Rb2GaSb2,1.0286999999999997,0
mp-1046652,Sr2FeSO3,0.0,0
mp-21167,Ni2P,0.0,0
mp-553916,ZnS,2.0265,0
mp-764612,LiFe2(BO3)2,1.3779,0
mp-684638,Al2S3,1.6697000000000006,0
mp-774651,LiZnAsH2O5,3.1079999999999997,0
mp-1043526,MgCr(Si2O5)2,3.5557000000000003,0
mp-1018132,AlBi,0.0,0
mp-11440,HfGa2,0.0,0
mp-29358,Zr6BCl14,0.0,0
mp-1046443,SrZnFe(PO4)2,3.2177,0
mp-772241,Li3MnAl2O6,1.7656999999999998,0
mp-696851,ZnH12C2S2(N3O4)2,4.6106,0
mp-570164,YbTl3,0.0,0
mp-972406,YbSi2Ni,0.0,0
mp-13978,Rb2ThF6,6.2733,0
mp-574266,MgGa,0.0,0
mp-775130,Li2CrO3,0.49339999999999984,0
mp-1006258,ErPu3,0.0,0
mp-569320,Sm3Ge5,0.0,0
mp-743698,Ca5Dy3Ti5Mn3O24,0.5324,0
mp-1023963,Te2MoWS2,0.0,0
mp-1013541,Sr3SbAs,0.0,0
mp-705894,RbSi2Mo3P6O25,0.36450000000000005,0
mp-1008526,B2CN,0.0,0
mp-972993,LiSmAu2,0.0,0
mp-17088,KBaPS4,2.3898,0
mp-29398,Cs2HfI6,2.2062,0
mp-1015582,CrN2,0.0,0
mp-758097,H6C2N4O,4.5934,0
mp-3397,Ba2TiO4,4.1473,0
mp-5990,CsLi(B3O5)2,5.0778,0
mp-861883,Ac2CuIr,0.0,0
mp-997616,BaC,0.0,0
mp-867842,ScInRh2,0.0,0
mp-555777,ZnGa3N3O,1.1263999999999998,0
mp-569002,Y3ReB7,0.0,0
mp-558204,ErPH5CO7,3.7117,0
mp-27489,Ba6Fe8S15,0.0,0
mp-984791,CaTmCd2,0.0,0
mp-573751,AlTeCl7,3.2790999999999997,0
mp-10510,BaAlBO3F2,6.0437,0
mp-1018104,Zr2Cd,0.0,0
mp-757282,Li2Sn5(PO4)4,2.4523,0
mp-556430,TeS2(NCl)2,1.9841,0
mp-759861,Yb2P4O13,0.0,0
mp-680284,Rb6Ta4S25,1.4821000000000002,0
mp-27295,Mg14Ge5O24,3.4454999999999996,0
mp-675740,Ca(CeTe2)2,0.0,0
mp-976114,Li2CdHg,0.0,0
mp-19075,K2SrV4O12,3.0368,0
mp-30788,SnMo3,0.0,0
mp-23414,Sc4NCl6,0.0,0
mp-14377,KTaGeO5,3.9009,0
mp-14983,Si4P4Ru,1.4604,0
mp-1046118,Mg2Ta2FeO8,3.0914999999999995,0
mp-697888,Na2CdH4(SeO5)2,2.8694,0
mp-695817,ScF3,1.7908,0
mp-997026,CuClO2,0.8627999999999999,0
mp-1043444,Ni(GeO3)2,0.0,0
mp-680112,CdI2,2.3322,0
mp-7709,ZnF2,3.5604,0
mp-30736,HoZn3,0.0,0
mp-33631,TiZn2O4,1.4336000000000002,0
mp-15886,Na2US3,0.0,0
mp-1027761,TeMo2S3,0.0,0
mp-673671,U11O5,0.0,0
mp-12274,LaAl4Co,0.0,0
mp-631310,CoReGe2,0.0,0
mp-674382,Na3NO2,0.0,0
mp-23376,GaSeBr7,2.2094,0
mp-16989,K5SnAs3,0.5394000000000001,0
mp-1048339,Ba2Tl2Zn3(CoO3)4,0.0,0
mp-1030453,Te6Mo3WSe2,0.00790000000000024,0
mp-776064,Li2VPO4F,2.6846,0
mp-672688,YbSeClO3,0.0,0
mp-1041039,CaCr2O4,0.6429,0
mp-28999,Sn4B3Ir7,0.0,0
mp-20419,Ca4In2N,0.0,0
mp-13416,Sc2InNi2,0.0,0
mp-758673,LiNb2O4,0.0,0
mp-762274,LiCu4(PO4)3,0.0,0
mp-781591,Li3Co2(SiO4)2,0.0,0
mp-31189,DyBe13,0.0,0
mp-568058,YbIn2,0.0,0
mp-5256,KCuC2,1.9346,0
mp-673807,Na3Sm7Cl24,4.3100000000000005,0
mp-568128,GaSe,0.0,0
mp-4564,Ba4Nb14O23,0.0,0
mp-13499,HoMg2,0.0,0
mp-28122,LiGdCl4,2.136,0
mp-531661,Nd10Ti12O39,1.1720000000000002,0
mp-6637,MnAg4(SbS3)2,0.8048000000000002,0
mp-686466,Pr16Si16N27Cl3O14,2.2197999999999998,0
mp-647708,BiIr3(CO)9,2.5458,0
mp-31961,LiMn2(PO3)5,4.2135,0
mp-631536,KBIr2,0.0,0
mp-864696,Ho2CoOs,0.0,0
mp-673673,NdO3,0.0,0
mp-5054,Pr(CoP)2,0.0,0
mp-864631,LiNbRh2,0.0,0
mp-676636,Ce9SmO20,0.0,0
mp-561170,Ba3ZrRu2O9,0.0,0
mp-862953,PmSbAu2,0.0,0
mp-10233,Ca2BN2F,2.9278,0
mp-767641,LiV2F7,2.6584,0
mp-3471,La2Ni5B4,0.0,0
mp-978100,Pr2InAg,0.0,0
mp-38102,Na3CeF7,2.6973000000000003,0
mp-1874,NbS2,0.0,0
mp-1001,BaN2,0.0,0
mp-10661,Tm,0.0,0
mp-1048912,Zn(NiO2)2,0.0,0
mp-6076,Ca4LaB3O10,4.299300000000001,0
mp-22461,Fe3Sn,0.0,0
mp-972044,YbTh3,0.0,0
mp-705517,CsCoH18N6(ClO2)4,1.3271,0
mp-30776,PrMg12,0.0,0
mp-7390,SrGe2,0.0,0
mp-5400,Th(CrSi)2,0.0,0
mp-764783,LiMnF3,2.7119999999999997,0
mp-754625,SrTaNO2,1.0762000000000005,0
mp-1029334,Zn2SbN3,0.1737000000000002,0
mp-582994,KAg(CN)2,3.0962,0
mp-11340,Dy(Ni2As)2,0.0,0
mp-556451,H14C5(NO)2,4.3708,0
mp-770860,Li4Mn2Fe3P6WO24,2.1268000000000002,0
mp-23989,GdH12(ClO2)3,3.1176,0
mp-31072,Sc6Te2Rh,0.0,0
mp-12958,BaSiO3,3.037699999999999,0
mp-756296,ErTiO3,0.0,0
mp-600257,GaH12C4NCl3,3.9311999999999996,0
mp-554185,AlPO4,5.6724,0
mp-8347,BaMnS2,0.43669999999999964,0
mp-753654,LiSnPO4,3.0124000000000004,0
mp-29839,Bi2SeO5,2.8422,0
mp-3496,S3(NO)2,1.6922,0
mp-972479,Sm3Sc,0.0,0
mp-757514,Li4Cu2Si3O10,0.33009999999999984,0
mp-1043356,CaCr(GeO3)2,0.3882000000000003,0
mp-707023,H6CN3Cl,5.107,0
mp-16745,ErAgPb,0.0,0
mp-17889,KNa2(PO3)3,5.0463000000000005,0
mp-769870,Li4Fe3Sb5O16,1.1154000000000002,0
mp-22569,InPO4,2.7239,0
mp-867243,Sc2ZnOs,0.0,0
mp-23896,LuHCl,0.0,0
mp-1042979,ZnBi2O5,0.0,0
mp-11009,CaC2(SN)2,3.3977,0
mp-1014219,HfZn,0.0,0
mp-2378,Th3Al2,0.0,0
mp-567753,La3CuSnSe7,1.2088,0
mp-2292,La2O3,3.5319000000000003,0
mp-560165,Cu(BiO2)2,0.0,0
mp-755472,BaCuO2,0.0,0
mp-24151,DyH2,0.0,0
mp-2053,Nb3Sb,0.0,0
mp-32509,V(PO3)4,1.7651000000000001,0
mp-999249,Sc2MnGe,0.0,0
mp-676713,Hf8PbO24,0.0,0
mp-1046542,SbF5,1.7429999999999999,0
mp-574599,CsAuSe,1.7036999999999998,0
mp-557453,La2Zr2O7,0.07469999999999999,0
mp-29373,KAlSb4,0.24520000000000053,0
mp-28344,Zr6CI14,0.7934999999999999,0
mp-867174,SrLi2Pb,0.0,0
mp-30293,Sr2GeSe4,1.7283000000000002,0
mp-19079,CoO,0.0,0
mp-13207,CeZnPO,0.0,0
mp-6276,K2Cd2(SO4)3,3.688,0
mp-541401,As2Se3(NF6)2,2.3161,0
mp-3123,PPdSe,0.9677000000000002,0
mp-1043428,MgV3(P2O7)2,2.0561,0
mp-2279,PuSn3,0.0,0
mp-24570,Be3As2(H2O5)2,3.9653,0
mp-1044813,Ba2AlCo2F11,3.0809,0
mp-1027294,Mo3W(SeS3)2,0.5340000000000003,0
mp-627029,Ba(HO)2,4.2059,0
mp-1030596,Te2MoWSeS,0.0,0
mp-2861,CaTl,0.0,0
mp-675124,In4SnS8,0.24070000000000036,0
mp-571561,Sm(NiSn)2,0.0,0
mp-531071,NaTa4O8,0.0,0
mp-8184,Li2ZnGeO4,3.1053,0
mp-631566,TaAuBr,0.0,0
mp-974571,Mn3Be,0.0,0
mp-27757,Be4B,0.0,0
mp-541096,CsUNbO6,2.1254,0
mp-1018653,BaMgPb,0.0,0
mp-8866,La10Se19,0.5750000000000002,0
mp-625832,Ba(H2O3)2,2.5448,0
mp-24814,KBH4,1.4027,0
mp-568872,InSi2As(H3C)8,3.4387,0
mp-867767,BeSiRh2,0.0,0
mp-16964,SiO2,5.6779,0
mp-760837,Rb3Nb20O34,0.0,0
mp-760476,LiU3O8,0.13229999999999986,0
mp-556468,ZnS,2.0328999999999997,0
mp-1041853,YCr3F15,0.0,0
mp-865120,NaPaO3,2.9473000000000003,0
mp-769500,NaMnPCO7,0.9376,0
mp-759450,Sb5O7F,2.662,0
mp-754184,ErAlO3,3.5517000000000003,0
mp-1042152,YSn(WO4)2,0.0,0
mp-30027,RbCrCl3,0.49519999999999986,0
mp-3271,Ti3AlC,0.0,0
mp-706986,PH4NO3,5.208500000000001,0
mp-21044,NdGeRh,0.0,0
mp-11558,Sc5Re24,0.0,0
mp-567414,BiAuCl6,1.6272,0
mp-979270,Tb2AgIr,0.0,0
mp-12766,Mg13Al14,0.0,0
mp-757327,Li7Ti2P7O24,0.21480000000000032,0
mp-770430,GdTa3O9,2.4874,0
mp-6433,KNd(PO3)4,5.3418,0
mp-1019806,KMg6P7O24,5.1735,0
mp-1042940,Mg3Fe4(MoO4)6,1.1707,0
mp-563013,Yb3CeS6,0.3475999999999999,0
mp-608653,As2Pb2S5,1.6038000000000001,0
mp-1047711,Ca(WO2)2,1.5520999999999994,0
mp-556154,AsSeS3N5F6,2.5393,0
mp-721426,NaPH7O6,5.1139,0
mp-777892,Li4V2Fe3Sb3O16,0.5435999999999996,0
mp-980071,TmLuTl2,0.0,0
mp-9901,Sc3Co2Si3,0.0,0
mp-22032,TbInIr,0.0,0
mp-202,TaTe4,0.0,0
mp-36240,LiMn8O16,0.0,0
mp-571457,Ti4NiBi2,0.0,0
mp-755652,Dy3TaO7,3.4082999999999997,0
mp-558007,Sm(IO3)3,3.6031,0
mp-16184,Rb2B2Se7,1.7001,0
mp-975031,RbBeH3,3.3379,0
mp-730823,P6H24N6O19,0.0,0
mp-998969,TiH,0.0,0
mp-12550,AlCuPt2,0.0,0
mp-555990,Er2SiSO4,2.8061000000000007,0
mp-27140,K2Sb4O11,1.8457,0
mp-1020009,Li2Ca2Si2O7,4.7378,0
mp-982048,Ge2O3,0.6884000000000001,0
mp-22563,Gd(LuS2)3,1.0491999999999995,0
mp-1044163,CaP2(WO5)2,1.8870000000000005,0
mp-770905,LiMnAsCO7,1.1502,0
mp-29537,Cl2O,1.0529000000000002,0
mp-764991,Li3V3P8O29,0.4419,0
mp-21456,SmMgIn,0.0,0
mp-707515,Mg16Si8HO32,0.0,0
mp-15323,Nd(BOs)4,0.0,0
mp-34982,Ag3AuS2,0.3886000000000003,0
mp-765191,LiAgF4,0.0,0
mp-698025,Na2Si3(HO4)2,4.5496,0
mp-850225,FeP6(WO8)3,2.0728,0
mp-19339,LaNiO3,0.0,0
mp-567218,KAuN12,1.4531,0
mp-555172,K3Nd3(PS4)4,2.4204,0
mp-770381,Li3V3(BO5)2,0.6788999999999996,0
mp-768961,YB5O9,5.2587,0
mp-720222,Na3CaAl3Si3SO16,3.7823,0
mp-555909,Tb5Se2Cl3O10,3.7344999999999997,0
mp-3311,SrUO4,2.0862,0
mp-23797,LiH6ClO7,5.2939,0
mp-23293,TbCl3,3.7957,0
mp-510493,Ce5Ge3,0.0,0
mp-676325,NbBi7O13,1.5781999999999998,0
mp-24280,GaH36C12S6(IO2)3,3.0307,0
mp-21316,TaSiIr,0.0,0
mp-770470,Li5Cu5(SnO6)2,0.0,0
mp-972748,Si3W,0.0,0
mp-560577,BaCaCrF7,4.0221,0
mp-698329,ZnH16C6(N3O5)2,3.3406000000000002,0
mp-608823,Ga2Fe2S5,0.0,0
mp-30861,PuZn2,0.0,0
mp-973536,LuUO3,0.0,0
mp-30817,LiAl2Pd,0.0,0
mp-862336,Sc2IrPd,0.0,0
mp-567601,Sr4CN4,1.2186,0
mp-23883,Be2BHO4,5.8665,0
mp-859120,ThNb4O12,1.7238000000000002,0
mp-558272,Na3ThP3O11,4.9705,0
mp-19765,In2HgTe4,0.5270999999999999,0
mp-1047530,YTi3F15,1.4202,0
mp-706,HgF,1.7582,0
mp-15862,GaMo4CS8,0.0,0
mp-622210,Ba2LaCu3O7,0.0,0
mp-613545,RhSe2Cl7,1.8899,0
mp-757608,Hg2P2H4O9,1.8809,0
mp-607464,Re2Cl5O4,0.6223000000000001,0
mp-767671,Li3VF6,2.5445,0
mp-770959,Ba3GeO5,2.6900000000000004,0
mp-774364,LiCrPO4,2.5125999999999995,0
mp-572596,TlIn3S5,1.7185999999999995,0
mp-1047907,BaMnZnF7,1.523,0
mp-626547,Ti3H2O7,2.8908,0
mp-13686,Nb5Si3,0.0,0
mp-626843,Ni(HO)2,1.8699999999999999,0
mp-21443,Ce2Pd2Pb,0.0,0
mp-560441,BaZn2Si2O7,3.3032000000000004,0
mp-10207,Np,0.0,0
mp-550,Al12Mo,0.0,0
mp-705414,Fe13O14,0.0,0
mp-559128,CaTeCO5,3.8456,0
mp-568431,Nd6Fe13Sb,0.0,0
mp-562057,Cs2Ca2Be3F12,7.1052,0
mp-556099,Yb3B5O12,0.0,0
mp-680240,Sb2Cl5F4,2.3152,0
mp-12900,HoSi,0.0,0
mp-2496,Cs4Sn23,0.0,0
mp-628305,K2MnSnSe4,0.2896000000000001,0
mp-14036,KRb2RhF6,2.1662,0
mp-28916,Mn3As2,0.0,0
mp-763610,LiCrSiO4,2.5476,0
mp-27265,AuClO,0.9779999999999999,0
mp-1040809,Mg(NiO2)2,0.0,0
mp-11984,YMgTl,0.0,0
mp-769272,LiCuPO4,0.0,0
mp-999054,Ti2GaCo,0.0,0
mp-990440,Na2ZrO3,4.350999999999999,0
mp-1473,Fe7W6,0.0,0
mp-19728,YSiRh,0.0,0
mp-1041411,CaBi4O9,0.7755000000000005,0
mp-30569,Zr6Co23,0.0,0
mp-15988,Li2CuSb,0.4535,0
mp-504476,Cu2PO4F,0.0,0
mp-557401,Na6PbO5,1.0040000000000002,0
mp-707703,Th8Al4H11,0.0,0
mp-862694,Al2IrRh,0.0,0
mp-15109,Sm(ZnP)3,0.13140000000000063,0
mp-27972,AcBr3,4.1045,0
mp-756550,TmAsO4,3.5775000000000006,0
mp-755642,Li3VS4,1.6175,0
mp-672670,Dy5Mg24,0.0,0
mp-976017,Li3Co,0.0,0
mp-22453,YbGePt,0.0,0
mp-21307,NaEuTiO4,0.0,0
mp-16116,RbSm2CuSe4,0.8441000000000001,0
mp-22510,FeGe,0.0,0
mp-1018040,MgSe,2.5854999999999997,0
mp-3805,Al(FeB)2,0.0,0
mp-21816,Ho5(Ge5Rh2)2,0.0,0
mp-756224,TbGdO3,3.0933,0
mp-559756,PrScO3,4.2587,0
mp-996992,LiAgO2,0.4686999999999999,0
mp-29222,Ba2Si3O8,4.5119,0
mp-561141,KYP2O7,5.2001,0