mp_id,formula,band_gap,fidelity
mp-21493,U2Ga8Ru,0.0,0
mp-27563,Rb2In4O7,1.4515999999999996,0
mp-1048875,Mn2ZnO4,0.0,0
mp-18513,Ba2MnSe3,1.0675,0
mp-1859,NpMn2,0.0,0
mp-736330,FeGe4H24C8(S5N)2,0.2570999999999999,0
mp-693,Pr3Tl,0.0,0
mp-676262,TaTlO3,0.9695,0
mp-17268,Lu2Cu(B2O5)2,0.6675,0
mp-554082,Ho2Hf2O7,3.1157000000000004,0
mp-1981,Ba2Sn,0.0,0
mp-13498,Tb2Mg,0.0,0
mp-13495,ZrPd,0.0,0
mp-778111,Li3Bi3P8O29,0.5346,0
mp-24784,Mg16Si8HO32,0.0,0
mp-4764,Pr2SeO2,2.1691000000000003,0
mp-557591,SiO2,5.6144,0
mp-558054,SrLi2Ta2O7,2.2704000000000004,0
mp-1047149,Mg2VWO6,2.0007999999999995,0
mp-542514,Ho2Te4O11,3.2288,0
mp-31502,ScCd7,0.0,0
mp-559391,Pr3Si2Cl3O7,4.8449,0
mp-4035,RbReO4,4.1189,0
mp-1025668,Te2Mo2WSe4,0.0,0
mp-18407,BaSiO3,2.1249000000000002,0
mp-30717,KHg2,0.0,0
mp-775298,Li4Mn2Cr3Sn3O16,0.039899999999999824,0
mp-505233,Cs2Sn(H2N)6,2.5332,0
mp-1027149,Te2Mo3W(Se2S)2,0.0,0
mp-14503,Er3CrB7,0.0,0
mp-4753,Al2SiO5,4.835500000000001,0
mp-675680,Sr(SbO3)2,1.3549000000000002,0
mp-774697,Li8NbO6,0.0,0
mp-31462,Er5BiPt2,0.0,0
mp-1016883,ZrZnO3,0.0,0
mp-15515,BaNaAlF6,6.981,0
mp-754964,HfZrO4,4.071999999999999,0
mp-34237,Mn2CuO4,0.006399999999999739,0
mp-1031453,KNaMg6O7,0.0,0
mp-675778,NaY2F7,7.0565,0
mp-989573,Rb2BrCl6F,0.9202999999999999,0
mp-7927,Nb4N5,0.0,0
mp-29174,SiCl2,2.0151,0
mp-721300,Ca2B5H2ClO10,5.0988999999999995,0
mp-755065,Ce2Ti2O7,0.0,0
mp-30885,YZn5,0.0,0
mp-768288,Li3FeS3,0.0,0
mp-571615,CdI2,2.3882,0
mp-10247,U2CrN3,0.0,0
mp-778824,Li4Cr(WO4)3,1.6962000000000006,0
mp-5878,KZnF3,3.6889000000000003,0
mp-541849,Al3(BRu2)2,0.0,0
mp-675621,Li5SnP3,0.0,0
mp-764336,Li4Mn3OF8,2.2249999999999996,0
mp-8869,Y2S2O,2.5515000000000003,0
mp-561521,PH8C2NO2,5.0127999999999995,0
mp-554445,Bi5IO7,2.7325000000000004,0
mp-621943,Re2C3I4O3,0.4427000000000001,0
mp-7785,CsCu4S3,0.0,0
mp-27636,Cs2SnI6,0.2884,0
mp-973308,MgIn3,0.0,0
mp-989602,LaReN3,0.0,0
mp-560425,Sr2Cu(BO3)2,0.022400000000000198,0
mp-1045721,AlCr4(CuO4)3,0.0,0
mp-756762,TbTmO3,4.568899999999999,0
mp-685995,Ta6Pb4O19,0.5510000000000002,0
mp-768330,Sn2P2O7,2.4065000000000003,0
mp-676260,Ag9Te4Br3,0.0,0
mp-1018822,NdZnIn,0.0,0
mp-754596,RbGaO2,2.4653,0
mp-989229,MgH8(ClO6)2,5.1722,0
mp-684673,S,0.0,0
mp-6105,Pr2Ta3(SeO4)2,0.9477000000000002,0
mp-554084,BaBi6(PO5)4,3.4275999999999995,0
mp-20233,CaMnSn,0.0,0
mp-767927,Li4TiV4Cr4O18,1.318,0
mp-22924,NaBi,0.0,0
mp-861170,Ti5Fe11O24,1.1496,0
mp-999305,PrRh,0.17550000000000043,0
mp-1008275,Cr3Ni,0.0,0
mp-10517,LiScP2O7,4.7646,0
mp-972061,YbTlHg2,0.0,0
mp-12492,CsLuCdTe3,1.5453999999999994,0
mp-997085,SrAgO2,0.0,0
mp-7283,LaB4,0.0,0
mp-558947,SiO2,5.6495,0
mp-17149,Sr3ErRhO6,2.192,0
mp-18757,Sr2CdWO6,3.3145000000000002,0
mp-3715,CoGeTe,0.053300000000000125,0
mp-1042559,Sr2YGaFe2O7,0.5931000000000006,0
mp-30278,Ce3Ga4Cl,0.0,0
mp-754663,Na2Be2O3,4.268000000000001,0
mp-541593,ZrPb2F8,5.2222,0
mp-1048861,Mg(MoO2)2,1.0712000000000002,0
mp-570158,KRb3CdCl6,4.0135000000000005,0
mp-625790,H8N2O,4.0837,0
mp-1085,UOs2,0.0,0
mp-1040837,ZnCr2(PO4)2,1.9589000000000003,0
mp-27454,BaLi2Si,0.0,0
mp-863367,KBiO3,0.4905999999999999,0
mp-773432,KMnPCO7,0.8876,0
mp-557272,AlS2(NCl2)2,1.0461999999999998,0
mp-676077,Ce3Nd2O9,1.9569,0
mp-1027293,MoWSeS3,0.5724,0
mp-554971,ZrFeF6,0.0,0
mp-2889,LaPd3S4,0.0,0
mp-1042695,Mg2Cr3O8,0.8362000000000003,0
mp-757149,Sr2Hf7O16,4.4155,0
mp-505697,Bi6P4PbO20,3.3286,0
mp-867215,Sc3OsC4,0.0,0
mp-560708,SiO2,5.6266,0
mp-1027738,TeMoS,0.0,0
mp-683941,Nb14S5,0.0,0
mp-540942,KDy2Cl7,4.5535,0
mp-770953,Be(FeO2)2,1.7507000000000001,0
mp-10009,GaTe,0.7804000000000002,0
mp-760361,H3NCl,2.6961,0
mp-567534,CdI2,2.3484999999999996,0
mp-1028881,TeMoWSe2S,0.0,0
mp-1040794,TaNb2Zn2O8,0.03289999999999971,0
mp-19142,Mn2V2O7,1.204,0
mp-1439,TiO2,2.5266,0
mp-975347,NdGeO3,0.0,0
mp-767644,LiV(PO4)2,0.6470999999999998,0
mp-753853,U4BiO10,0.0,0
mp-29912,Sb2MoSe,0.0,0
mp-770885,Li3FeO3,2.2955,0
mp-18645,Sc5(In2Rh)2,0.0,0
mp-12874,Si2Ru,0.0,0
mp-235,SN,0.0,0
mp-557985,KPO3,4.9935,0
mp-776432,Na2LiCuPCO7,0.23419999999999974,0
mp-867279,DyPaRu2,0.0,0
mp-781626,Li2NbO3,0.0,0
mp-531949,Li23(MnAs)20,0.0,0
mp-541451,Ga2(SO4)3,4.33,0
mp-15868,Co4SnSb12,0.0,0
mp-1019732,EuAl2O4,0.0,0
mp-531302,La10(Si2O9)3,3.3825000000000003,0
mp-997040,AuBrO2,0.0,0
mp-680113,CdI2,2.3441,0
mp-999335,NdRh,0.2267999999999999,0
mp-767276,Li5Fe5Si7O24,1.8272,0
mp-760062,Na3Ti8O16,0.0,0
mp-707852,CuH8CN5Cl3,0.2587,0
mp-850099,CuS2,0.0,0
mp-22691,InSe,1.7788,0
mp-1042980,MgSn2O5,1.7777000000000003,0
mp-555067,AsC4S4N4Cl2O2F5,1.4993999999999998,0
mp-569086,DyInNi,0.0,0
mp-10003,Nb4CoSi,0.0,0
mp-1041588,Y(WF5)3,3.4276999999999997,0
mp-27872,MgTi2O4,0.0,0
mp-30625,Dy2Tl,0.0,0
mp-14424,Sr(AlS2)2,3.8928000000000003,0
mp-561454,KAu(SO4)2,1.4475,0
mp-764730,Li3VO3F,1.9893999999999998,0
mp-18062,Na10YbSn12,0.6806000000000001,0
mp-1029336,KZnN,0.5486999999999999,0
mp-1044802,Ba2AlNi2F11,4.2505,0
mp-631510,HfBe2Bi,0.0,0
mp-21546,K2CeNb5O15,0.0,0
mp-603276,NaSr7Cu8(SF)8,0.0,0
mp-2637,YSe,0.0,0
mp-704459,Na2Cr2O7,2.5252999999999997,0
mp-753662,K2Mg2O3,2.888,0
mp-632787,CaAlH5,3.3102,0
mp-769539,Li7VGeO8,3.5013,0
mp-17420,SmC10,0.0,0
mp-561353,NaZr2MnF11,4.2206,0
mp-568655,In7Pd3,0.0,0
mp-20686,Ho2In,0.0,0
mp-778503,Ti3Fe2Sb(PO4)6,0.028900000000000148,0
mp-774461,TiMn3(PO4)6,0.0,0
mp-11715,MgSn(BO3)2,3.6229999999999998,0
mp-26247,Li5Cu(PO4)2,1.7933,0
mp-560128,EuHSO5,0.0,0
mp-600174,H4Pb(CO3)2,3.0104,0
mp-778219,Li4Cr3Co3(SnO8)2,0.0,0
mp-631398,TeOsCl2,0.0,0
mp-774174,NaMn2O4,0.0,0
mp-1873,ZnF2,3.48,0
mp-555997,OsC4(ClO2)2,2.3422,0
mp-8244,Ti5TlSe8,0.0,0
mp-628643,CuAsPbS3,0.7903000000000002,0
mp-560260,CsLa(SO4)2,4.3605,0
mp-7610,Li2CaSiO4,5.189699999999999,0
mp-684093,LiBi(PO3)4,4.7432,0
mp-981233,UCr3,0.0,0
mp-23380,Tl3PbI5,2.6249,0
mp-561499,Dy3CuSnS7,1.4820000000000002,0
mp-675045,Li7VP4,0.0,0
mp-690508,Ta2Mn4O9,2.6363000000000003,0
mp-542734,Rh2O3,0.6193,0
mp-553308,CsNdO2,2.9250999999999996,0
mp-695698,Ca2TiAlSi2O9F,3.0731,0
mp-866019,LiNdTl2,0.0,0
mp-24340,K3GeH3S3O2,2.9783,0
mp-773191,Li6Cr3Sb3O16,0.5375999999999999,0
mp-770806,Sm2TiO5,3.3038999999999996,0
mp-560847,Nb2TlPS10,1.3359,0
mp-542488,MgCo,0.0,0
mp-27388,Ba(SiNi)2,0.0,0
mp-763338,V3O5F,0.0,0
mp-21850,Fe3SnC,0.0,0
mp-677162,Yb(BiTe2)2,0.7308000000000003,0
mp-641957,Nd(Fe2B)6,0.0,0
mp-18447,K3Na2SnAs3,0.5786000000000002,0
mp-977547,MgZnRh2,0.0,0
mp-770237,LiMnPCO7,0.9817,0
mp-760133,Li6Ag3F10,0.07679999999999998,0
mp-339,UMn2,0.0,0
mp-7929,Rb2PtS2,1.2521,0
mp-5843,Ce(PO3)3,0.22279999999999944,0
mp-20727,Sb2PbO6,1.9264999999999999,0
mp-756127,TaNbO5,2.3307,0
mp-767070,LiLa5Ti8O24,2.1172000000000004,0
mp-865771,YbInPd2,0.0,0
mp-18344,Ta2Tl4S11,1.5232999999999994,0
mp-619775,Y7C2I12N,1.0406,0
mp-21010,PrSnRu,0.0,0
mp-1018126,GaBi,0.0,0
mp-560889,Ba6Na2Si4O15,4.1718,0
mp-24834,H4N2O3,3.2767,0
mp-30160,Si(CN2)2,4.2444,0
mp-605034,K2NiF6,2.3603,0
mp-4983,Nd7Al7Co6,0.0,0
mp-981393,Lu2HgAu,0.0,0
mp-17490,Rb5SiAs3,0.3756999999999999,0
mp-574653,Cs2LiIr(CN)6,5.4079,0
mp-13563,YP5O14,5.4835,0
mp-29761,UCO5,2.2607999999999997,0
mp-1041338,BiP2O7,0.31789999999999996,0
mp-655105,K2Pb(SO4)2,2.5256,0
mp-690541,Tl2SO3,2.5793,0
mp-13288,Ba3LiN,0.0,0
mp-754344,LiZnO2,0.0,0
mp-33314,Li3Mn2O4,0.009699999999999598,0
mp-740710,Na2LiP3H8O13,5.0012,0
mp-1047945,BaWF7,3.276,0
mp-30276,Ce10Ga5Cl4,0.0,0
mp-695286,Li11Sc7Ti(PO4)12,2.5181999999999998,0
mp-7874,LiGaGe,0.0,0
mp-684426,Sb(PO3)4,0.0,0
mp-981,SrF2,6.7493,0
mp-556797,K2Si3SnO9,3.8617,0
mp-979988,YbSm3,0.0,0
mp-730972,UP3H10ClO8,0.37829999999999986,0
mp-23700,RbH2OF,5.3401,0
mp-643754,HgH2NCl,2.3849,0
mp-40802,BaSrLaBiO6,1.8731999999999998,0
mp-698457,NaLiH4C2O5,4.616300000000001,0
mp-762500,LiTi2P3O11,0.06820000000000004,0
mp-29301,Ba4Ga2S7,2.6305,0
mp-7234,Nb5N6,0.0,0
mp-21209,Cu3(AsO4)2,0.0,0
mp-555706,LiAlSiH2O5,1.7217999999999998,0
mp-677248,Ca2AlH10IO8,3.7769,0
mp-849311,MgSb2H2F14,4.4907,0
mp-720197,K4GeH4N2O3,2.4271000000000003,0
mp-28375,Ta2AgF12,0.7143000000000002,0
mp-974959,Rb3Li,0.0,0
mp-15208,Nb4GaSe8,0.0,0
mp-562,Sb2Pt,0.0,0
mp-1041144,Ca(WO2)2,1.0543999999999998,0
mp-672248,TaAsPCl13,2.6094,0
mp-1048589,Ca(TiS2)8,0.0,0
mp-33024,H2S,4.0901,0
mp-558716,WSNCl5,1.0186,0
mp-1006058,UCd2O5,2.0821,0
mp-38505,GaCuSe2,0.0,0
mp-865322,UTlO3,0.3083999999999998,0
mp-572313,Cu3Te2(BrO3)2,0.0,0
mp-2271,NaPt2,0.0,0
mp-542767,Sr2TmRuO6,0.1349999999999998,0
mp-8280,Ba(MgAs)2,1.0689000000000002,0
mp-753763,Ce5Dy2O13,1.2663000000000002,0
mp-683598,PWC5Br3O5,2.0011,0
mp-770327,Li4Ti3Fe3(CoO8)2,0.0,0
mp-974270,Na3Al,0.0,0
mp-1009133,MnCo,0.0,0
mp-972653,SmHoTl2,0.0,0
mp-6073,Mg3Al2(SiO4)3,4.9394,0
mp-999188,NbNi3,0.0,0
mp-5921,TaAlNi2,0.0,0
mp-706642,H3ClO5,3.4848,0
mp-771080,Li2NiBO4,1.2049,0
mp-555961,Ca3Zn3(TeO6)2,1.8503999999999996,0
mp-555855,Sr2CaCu2(BiO4)2,0.0,0
mp-772272,Li2Cr2O7,2.5126,0
mp-569388,Te2Ir,0.0,0
mp-636359,VFe2Sn,0.0,0
mp-758088,Ba6Bi6O17,0.0,0
mp-16297,Sc3SnC,0.0,0
mp-9819,RbAsF6,5.0687999999999995,0
mp-31464,Dy5Bi3,0.0,0
mp-16830,Sr(Ni2B)6,0.0,0
mp-849953,Li2Mn3VO8,0.5,0
mp-996971,CuPdO2,0.0,0
mp-755004,CsInO2,1.9381,0
mp-676519,Sr6Nb7O21,0.0,0
mp-3871,Ti2SnC,0.0,0
mp-1005,FeP,0.0,0
mp-1016852,BaMnO3,0.0,0
mp-1006880,BiB,0.07979999999999965,0
mp-570778,Cl2,2.6476000000000006,0
mp-777698,V2O3,1.4363000000000001,0
mp-1029288,Mg2MnN3,0.038300000000000445,0
mp-605853,Li4CO4,5.5672999999999995,0
mp-769550,Li2Mn5(FeO6)2,0.3998000000000004,0
mp-22407,BaCu2Si2O7,0.0,0
mp-626340,Ba(H8O5)2,3.7433,0
mp-20495,Na2CO3,3.1421,0
mp-982188,Y(Mn2Fe)4,0.0,0
mp-554572,K3NbP2O9,2.8040000000000003,0
mp-2815,MoS2,1.4606,0
mp-1044174,Si2Sn13(SbO14)2,0.49289999999999967,0
mp-1044107,LaTaZnFeO6,2.6454000000000004,0
mp-30427,BaZnBi2,0.0,0
mp-1042495,Ti3Zn2O8,2.2935,0
mp-35986,Ba4Nd3F17,6.347799999999999,0
mp-612861,La(ReSi)2,0.0,0
mp-14052,Ca3In2(SiO4)3,3.668,0
mp-21073,HoGeIr,0.0,0
mp-557384,MgUB2O7,2.2225,0
mp-30466,YbBiPd,0.0,0
mp-567680,BaCl2,4.5724,0
mp-707251,CdH6(SO4)4,0.5212,0
mp-20690,NdFeSi,0.0,0
mp-2850,B2Os,0.0,0
mp-2651,PrF3,7.5968,0
mp-28952,PdSO4,1.0661,0
mp-781605,Co2O3F,0.0,0
mp-976334,Li3Tc,0.0,0
mp-695373,Na4Al11Si13Ag7O48,1.5011,0
mp-754110,SmAgO2,2.5214000000000003,0
mp-1026356,Te4W3Se2,0.3689,0
mp-570974,BeCl2,6.514,0
mp-7645,KAl(SO4)2,5.5291999999999994,0
mp-21897,YbIn4Pt,0.0,0
mp-672290,EuPPt,0.0,0
mp-510568,V2O5,1.6982,0
mp-27455,YCl3,4.9300999999999995,0
mp-1030410,Te2Mo3WSe6,0.0,0
mp-10989,KYbSe2,0.0,0
mp-29937,Ho5(ReO6)2,0.0,0
mp-21283,Cs2PbO3,1.3724,0
mp-30168,H34C19,5.4526,0
mp-28051,SbTeI,0.8605999999999998,0
mp-767204,Li2V(Si2O5)3,2.0913,0
mp-979940,Yb3Zr,0.0,0
mp-1045352,Ca(FeS2)2,0.0,0
mp-626994,Ba(HO)2,4.2448999999999995,0
mp-541430,BaLaCuSe3,1.2077999999999998,0
mp-1590,Be12Cr,0.0,0
mp-706662,AlB3H14N,1.1690999999999998,0
mp-776608,Ca2Ti6N2O11,2.2672000000000003,0
mp-626264,Ba(H8O5)2,3.8287,0
mp-1016932,MnZnO3,0.0,0
mp-617283,Cu2AsClO4,0.0,0
mp-23333,Hg3Cl4O,1.4621,0
mp-1042084,MgTe2O7,1.2403000000000002,0
mp-30980,NaYO2,4.132999999999999,0
mp-9124,LiZnAs,0.5474999999999999,0
mp-3808,K2UO4,1.9745,0
mp-19844,Na(FeSb3)4,0.0,0
mp-22877,VCl2,1.2546000000000004,0
mp-1041808,Ca(SnO2)2,2.0496,0
mp-556156,LiUBO5,1.9059,0
mp-558831,KNdPdO3,0.6506000000000003,0
mp-1027501,Te2Mo3W(SeS2)2,0.0,0
mp-570159,SmZnSn,0.0,0
mp-1897,PuRh2,0.0,0
mp-13082,Mn2CoSi,0.0,0
mp-1025988,Mo3(SeS2)2,0.5613000000000001,0
mp-755358,LuAlO3,3.6479,0
mp-720312,Na2B5H3O10,4.9795,0
mp-864671,HfAlRh2,0.0,0
mp-772222,TmClO,5.0946,0
mp-696597,B5H9,5.7128,0
mp-570505,Ca3(AlN2)2,2.2854,0
mp-756297,ZnIn2O4,1.1790999999999996,0
mp-1003636,NaMn4O8,0.08029999999999982,0
mp-770394,Na5Fe2P2(CO7)2,1.4136000000000002,0
mp-977582,ZrZnRh2,0.0,0
mp-1018154,Hf2Hg,0.0,0
mp-567278,Sr(Si3N4)2,3.208,0
mp-752581,Sr2HfO4,3.9466,0
mp-753342,LiCuF4,0.0,0
mp-672299,YInNi,0.0,0
mp-542208,Ba3NaOs2O9,0.0,0
mp-1046264,Zn(SnO2)4,0.6476000000000006,0
mp-677413,K2SO3,0.0,0
mp-560608,Nd10S14O,1.8352,0
mp-1027473,Mo3W(SeS)4,0.5864999999999996,0
mp-165,Si,0.45169999999999977,0
mp-31017,Ce4B2N5,0.0,0
mp-24747,Na3H6Rh,3.1017,0
mp-18189,LiTmSn,0.0,0
mp-696057,LiMg4H13Os2,3.3137,0
mp-1448,NdGa,0.0,0
mp-1043136,Cr4(CuO4)3,0.0,0
mp-779312,Li2Mn(BO3)2,0.6614000000000002,0
mp-680118,CdI2,2.3483,0
mp-16742,BaAgTeF,1.5093999999999999,0
mp-28121,La3ReO8,1.8544999999999998,0
mp-8638,Tc,0.0,0
mp-562260,CaSO4,5.953899999999999,0
mp-1415,CaSe,2.0802000000000005,0
mp-754948,Cu6OF11,0.0,0
mp-706281,NaH4CNO2,5.825200000000001,0
mp-775125,Li8Fe3Sn(PO4)6,2.2165000000000004,0
mp-708184,H10C5S2N2(O2F3)2,5.8112,0
mp-760595,CuCO3,0.1027,0
mp-621925,Mn2GeS4,0.0,0
mp-753974,Li8CrS6,0.7727999999999999,0
mp-571665,Ho(SiPt)2,0.0,0
mp-753783,Li5InO4,2.6407000000000003,0
mp-571542,CeAlCo,0.0,0
mp-540611,RbNd(PO3)4,5.451899999999999,0
mp-1201,Sb2Te3,0.28770000000000007,0
mp-672235,Co(NiS2)2,0.0,0
mp-772529,Y2W2O9,3.1880999999999995,0
mp-779482,Li6Bi2B4SO16,0.13070000000000004,0
mp-767321,Li7(SbS)2,0.3237000000000001,0
mp-1043921,LaZn(FeO3)2,0.0,0
mp-1018033,AgRhO2,0.7869999999999999,0
mp-16370,Th2Ge,0.0,0
mp-558244,As(IF3)2,0.5218,0
mp-754125,NdO2,0.0,0
mp-28012,ReNF6,2.3175999999999997,0
mp-1043948,CaLaFeSnO6,2.1986000000000008,0
mp-557032,Ba5Hf4S13,0.6352000000000002,0
mp-690525,MnCO3,3.4490000000000003,0
mp-8314,Cs2NaAsO4,3.5275,0
mp-555952,Sb4RuC6(O3F11)2,4.4456,0
mp-1002133,LaGa,0.0,0
mp-364,AlRh,0.0,0
mp-863012,CdH10C3NCl3,4.1544,0
mp-30612,Er7Rh3,0.0,0
mp-4539,Ho(CuGe)2,0.0,0
mp-779365,V2OF5,1.5278,0
mp-24724,TbH2,0.0,0
mp-1006882,CdC,0.0,0
mp-756811,Li4TiS4,2.1619,0
mp-531238,Cd(GaO2)2,0.6267999999999998,0
mp-971751,VRh,0.0,0
mp-1047021,Ca2Nb2CoO8,2.6971,0
mp-868003,LaInAu2,0.0,0
mp-42599,NaYTiNbO6F,2.7187000000000006,0
mp-6203,CaCuAs2O7,0.019300000000000317,0
mp-685195,SrLaTl(AsO4)2,3.5481,0
mp-675912,Yb2SmS4,0.0,0
mp-759848,Bi4O5F2,2.4866,0
mp-1029562,Li3InN2,1.0920999999999998,0
mp-642725,CaHClO,5.327,0
mp-21554,P3Pb5O12F,3.72,0
mp-640057,K2OsNCl5,1.6138000000000003,0
mp-11227,Al12W,0.0,0
mp-996,OsO2,0.0,0
mp-13486,LaCoCu12,0.0,0
mp-773173,Ta2Co4O9,1.9463999999999997,0
mp-768765,Li2Bi2B2O7,3.1397,0
mp-1020715,Sr6Y2Al4O15,3.9889,0
mp-4881,Er(SiNi)2,0.0,0
mp-8411,Na2AgAs,0.7294,0
mp-540856,Tm8Ga3Co,0.025000000000000355,0
mp-645700,Ba14Na11Li5N6,0.0,0
mp-28432,Tl3Cd2I7,1.8253,0
mp-14025,Zr2CuS4,0.0,0
mp-20932,NbNiP,0.0,0
mp-773242,Li3V3CoO8,0.8013999999999997,0
mp-27804,Rb3Cu2Cl7,0.16620000000000001,0
mp-756522,CuTe(PO4)2,0.0,0
mp-985296,Ag3Pd,0.0,0
mp-30725,YHg2,0.0,0
mp-621964,K2RbBiSe3,2.1256,0
mp-550685,Ba2CaTeO6,2.9976,0
mp-571666,CsLi3Cl4,5.2744,0
mp-975049,NdSmHg2,0.0,0
mp-492,TiN,0.0,0
mp-627418,Ge7H18O23,2.946,0
mp-721255,Li10Si(PO6)2,5.1063,0
mp-568828,Hg6BiSb4Br7,1.0223999999999998,0
mp-849709,Li4Ti3V2Cu3O16,0.054999999999999716,0
mp-1019256,SmTlZn,0.0,0
mp-30478,Ca2Pb,0.0048000000000003595,0
mp-561104,Ga(IO3)3,3.3088,0
mp-555363,Na2Cd(SiO3)2,2.87,0
mp-656615,Rb,0.0,0
mp-631633,LaCoTc2,0.0,0
mp-570873,Nb(Te2I3)2,0.7654000000000001,0
mp-23752,Cs2MgH4,2.9953000000000003,0
mp-22397,Nd(GeRu)2,0.0,0
mp-558636,CaAl2O4,4.9819,0
mp-1047279,Mg2SbWO6,2.7696,0
mp-22683,CeCuSn,0.0,0
mp-27931,Rb2SnO2,2.2294,0
mp-740739,K6Te2P6(H4O11)3,0.45600000000000007,0
mp-9338,Ba2MgSi2O7,4.4529000000000005,0
mp-781504,Li2CrP2O7,2.5196,0
mp-21111,NdSnPt,0.0,0
mp-770866,LiMn5O8,0.0,0
mp-557438,Sm2Ti3(BiO6)2,1.8994999999999997,0
mp-19512,BaV2(PO5)2,2.2674000000000003,0
mp-9851,HoP5,0.10430000000000028,0
mp-31069,P2Pb8O13,2.0642,0
mp-30324,Mg5(Si8Pt5)2,0.0,0
mp-672348,KAu(CN)2,2.9012000000000002,0
mp-541879,Rb2Ge2S5,2.3390999999999997,0
mp-20211,Mn3Si,0.0,0
mp-23486,RbNiCl3,0.7213999999999998,0
mp-774243,LiCrSnO4,1.3642000000000003,0
mp-672240,TbNi,0.0,0
mp-697946,Cs2Zr2ZnH12(OF2)6,4.1025,0
mp-979011,TmZr,0.0,0
mp-7061,NdZnAsO,0.8621999999999996,0
mp-20838,CaIn4Ir,0.0,0
mp-542554,Cu3As4H18C8I3(NO2)2,2.778,0
mp-29827,Rb4Hg5Te13,0.6505000000000001,0
mp-654301,Nb5P7O30,2.5667999999999997,0
mp-559070,Li2Hg(PO3)4,3.2670999999999997,0
mp-675638,Pr2PbS4,2.0295000000000005,0
mp-532290,Zr3BiF15,5.2035,0
mp-567515,Rb2Hg2PdBr8,1.461,0
mp-554817,Ba3CaSb2O9,3.1610000000000005,0
mp-652274,Ge2RuC4(Cl3O2)2,3.3452,0
mp-17998,Ca(RhO2)2,0.8186999999999998,0
mp-849429,Li3Co2OF5,1.5355999999999999,0
mp-705516,Li10Sn(PSe6)2,1.0869000000000002,0
mp-1045231,Ca(WO2)4,1.1844000000000001,0
mp-18784,DyVO4,2.9764,0
mp-638586,Te3Pd13,0.0,0
mp-570706,CsTiCu3Se4,1.2487999999999997,0
mp-570837,Cs(AsRu)2,0.0,0
mp-753968,Li2WS4,1.6913,0
mp-557597,K2Ca(NO2)4,2.4394,0
mp-1044670,Zn(AgO2)2,0.0,0
mp-10893,MnAlPt2,0.0,0
mp-8666,CsAgO,1.4479000000000002,0
mp-679971,TiSi4(NCl7)2,2.5220000000000002,0
mp-542640,GePt,0.0,0
mp-675801,KNbCl6,2.1638,0
mp-1042163,Ca(WO2)2,1.5984000000000003,0
mp-34663,NaAsSe2,0.028200000000000003,0
mp-3342,ZnPS3,1.98,0
mp-770520,Li4Ti2Cr3Fe3O16,0.0,0
mp-4117,Li2Si2O5,5.154,0
mp-1041453,CaCu2(WO4)2,1.3795000000000002,0
mp-867897,ScTaRu2,0.0,0
mp-7907,Al2ZnSe4,2.1510999999999996,0
mp-7918,HfGeS,0.0,0
mp-1008471,CdTe,0.0,0
mp-1041713,AlCr(WO4)2,1.8844999999999996,0
mp-699284,Li2HN,2.6355,0
mp-753277,LiAgF2,1.2066999999999999,0
mp-605808,AgH8C4S3(OF)3,3.4096,0
mp-707323,LaH16C2N11O17,3.5553999999999997,0
mp-780681,LiFe3(SiO4)2,0.6305999999999998,0
mp-862967,PmTlRh2,0.0,0
mp-11267,BaHg2,0.0,0
mp-559628,NaNp3F13,0.0,0
mp-559151,BaSrTa2O7,2.1898,0
mp-1018677,DyScSb,0.0,0
mp-776081,K2O,1.7461,0
mp-776825,BaY3F11,6.1381000000000006,0
mp-862855,PaO2,0.0,0
mp-29831,TaCl5,2.8236999999999997,0
mp-679406,K2HS2NO6,4.5359,0
mp-10504,ScB4Os3,0.0,0
mp-1008676,TiS2,0.0,0
mp-1025879,Mo2W(Se2S)2,0.8946000000000001,0
mp-675436,Sm2Zr2O7,2.5065,0
mp-8076,Na3SbO3,3.0881000000000003,0
mp-4597,Y2B5Pd14,0.0,0
mp-28289,SiH3F,6.169499999999999,0
mp-581644,Y2Si2O7,4.566000000000001,0
mp-22061,In(TeMo)3,0.0,0
mp-1017182,RbMg6W,0.0,0
mp-510569,CsCeCuS3,0.7010999999999998,0
mp-18962,Sr2CaMoO6,2.2555,0
mp-22488,Co2C,0.0,0
mp-518,Ti5Re24,0.0,0
mp-10044,BAs,1.2036999999999995,0
mp-684446,LiSnP2O7,0.0,0
mp-581517,K2In(PSe4)2,1.1954999999999998,0
mp-625320,Al(HO)3,4.6972,0
mp-865317,Tm2CuPt,0.0,0
mp-631442,V2CuBr,0.0,0
mp-755378,NaPdO2,0.0,0
mp-770589,Li3Al2FeO6,2.3459999999999996,0
mp-772185,Li6Hf2O7,4.4135,0
mp-20050,InP3,0.0,0
mp-763434,Li5MnO3F,2.3167999999999997,0
mp-677323,Li11TiSb5,0.09020000000000028,0
mp-613927,KCeCuTe4,0.0,0
mp-560939,NaLaP2O7,4.4754000000000005,0
mp-646967,Ca3Mg3(PO4)4,5.0058,0
mp-9884,KFeSe2,0.0,0
mp-754736,BaSr3I8,3.1392,0
mp-626631,Al(HO)3,3.8335999999999997,0
mp-973976,LuBr,0.0,0
mp-559346,K3Nb3Si2O13,2.1454,0
mp-777810,Ge11N11O5,0.0,0
mp-17272,NbCuO3,0.9479,0
mp-556725,CuH8C2Br3NO,0.0,0
mp-770570,Dy2WO6,3.7745,0
mp-29337,Tl3BS3,1.4222000000000001,0
mp-867811,TaMnRu2,0.0,0
mp-22431,Yb2Ti2O7,0.0,0
mp-570806,Mg30Al24Ag19,0.0,0
mp-1006151,Na3Pu,0.0,0
mp-581770,Sm4Al23Ni6,0.0,0
mp-22215,Ba2Y(CuO2)3,0.0,0
mp-984718,BAs,1.1431000000000004,0
mp-769462,Li2Nb6NiO18,1.2693000000000003,0
mp-17323,TbCu(BO2)5,0.7693000000000003,0
mp-557393,K3AgC4(SN)4,3.5704,0
mp-765227,Li6Sn5(P2O7)4,2.6673000000000004,0
mp-693773,ScH16C3S3O17F9,3.936,0
mp-560263,Pr4Se3(O5F3)2,3.9852,0
mp-675208,Co(Mo3Se4)4,0.0,0
mp-8763,Tm2S2O,2.6946999999999997,0
mp-579086,KSrNb2O6F,1.7925999999999997,0
mp-1008873,MnCoSe,0.0,0
mp-10970,LiErO2,4.110799999999999,0
mp-975788,Pr2AgHg,0.0,0
mp-570686,SnBi,0.0,0
mp-1046232,Mg(BiO2)4,0.6780999999999997,0
mp-754038,YIO,2.2197000000000005,0
mp-1048574,Ba2Mn4Tl2Zn3O12,0.0,0
mp-28062,Sb2F7,3.8056,0
mp-549869,K4CO4,2.5006000000000004,0
mp-641112,ReO2F3,3.2953,0
mp-782720,LiTiV3O8,0.8689999999999998,0
mp-975663,Pr(CoB)4,0.0,0
mp-781611,Li4Fe2C4SO16,1.5539,0
mp-5182,Nd2Fe14B,0.0,0
mp-29946,IO2F,2.8952,0
mp-23499,K2SnCl6,2.4635,0
mp-12707,Zr2Np,0.0,0
mp-17298,SrTi4(PO4)6,2.7819,0
mp-1046815,BaTl(CoO3)2,0.0,0
mp-771093,Li3Cr10Fe5O24,1.4123,0
mp-3187,BaCeO3,2.2207000000000003,0
mp-19415,Er(FeO2)2,0.0,0
mp-14665,KNd(SO4)2,5.6613,0
mp-569853,CsNb4Br11,0.30010000000000003,0
mp-764354,LiMnF5,1.652,0
mp-764046,V3(O2F)2,0.4558,0
mp-24022,RbH3(SeO3)2,4.1504,0
mp-862620,IrRu3,0.0,0
mp-12171,K6MgO4,1.6783000000000001,0
mp-768876,Na2Bi2C4SO16,0.0,0
mp-863746,TbBr3,2.8564,0
mp-29628,Na4SnS4,2.0692,0
mp-972353,U3Pa,0.0,0
mp-559670,KBaYSi2O7,4.6816,0
mp-5080,Ba5Mg18Si13,0.0,0
mp-963,ZrO2,2.8574,0
mp-20863,Sb2Pt2O7,0.5643000000000002,0
mp-558724,La2SiS5,2.3415,0