mp_id,formula,band_gap,fidelity
mp-764367,V2OF5,1.6925,0
mp-4904,Pr(SiRu)2,0.0,0
mp-20930,InCuO2,0.23989999999999956,0
mp-772417,Li4V3Fe5O16,0.9964999999999997,0
mp-975170,RbHg3,0.0,0
mp-11344,PrO,0.0,0
mp-13429,La2CdRh2,0.0,0
mp-554505,KHo(PO3)4,5.3316,0
mp-1027700,Te4Mo3WS4,0.0,0
mp-567164,BRh,0.0,0
mp-16253,BaCaSi,0.17959999999999976,0
mp-773089,K3Li2Nb6(PO8)3,0.0,0
mp-775564,Li2TiV3O8,1.2315000000000005,0
mp-764799,LiFe2(BO3)2,1.7641,0
mp-976418,Nd3Ho,0.0,0
mp-558209,Ca3Mg(SiO4)2,4.8796,0
mp-21098,UPb,0.0,0
mp-763784,LiMn2F6,0.9550000000000001,0
mp-31060,Rb4(BS)9,3.1228000000000002,0
mp-13009,SmCrGe3,0.0,0
mp-1014296,C3N,0.0,0
mp-694975,Ba3HoUFeO9,1.4135,0
mp-13840,Ho3ScO6,4.423400000000001,0
mp-861869,CaLuRh2,0.0,0
mp-775271,Li2Cr3WO8,2.1889,0
mp-865303,Tm2CoOs,0.0,0
mp-1009135,MnP,0.0,0
mp-14536,KNa2Zn3(PO4)3,3.9,0
mp-697284,KH3SO6,4.5855,0
mp-975388,NdDy3,0.0,0
mp-505517,BaNb4O6,0.0,0
mp-29127,Bi(TeBr2)2,1.0593,0
mp-759071,LiSb(PO3)4,4.3011,0
mp-7617,Rb3YF6,5.0547,0
mp-722941,CaZn2H12(BrO)6,3.5949,0
mp-4891,HoAlO3,5.8318,0
mp-1023953,MoSeS,0.6783,0
mp-1043411,CaSi4SnO10,3.2741999999999996,0
mp-777418,Li2FeF4,3.5922,0
mp-3273,Si5P6O25,5.5931,0
mp-755892,SrLa2Cl8,3.8396,0
mp-13119,CdO,0.015799999999999995,0
mp-1044669,Mg(BiO2)2,1.3033000000000001,0
mp-19369,Ti2CrO5,0.2987000000000002,0
mp-558660,Mg2BiPO6,3.6229999999999998,0
mp-643069,Li2HIO,4.3192,0
mp-600063,SiO2,5.6966,0
mp-2951,CdGeO3,1.5283000000000002,0
mp-33239,Pu2S3,0.0,0
mp-1047148,Ca(CuO2)2,0.5792999999999999,0
mp-622105,Ba2DyCu3O7,0.0,0
mp-979967,Yb2GaHg,0.0,0
mp-555707,S4N2O3F,1.3392,0
mp-677028,RbBiF3,1.3584,0
mp-777465,Li3P3(WO6)2,3.6739,0
mp-561253,Ba3Lu(BO2)9,5.247299999999999,0
mp-21137,Ca2PbO4,1.4819999999999998,0
mp-865802,LuRh3,0.0,0
mp-998916,KO2,0.0,0
mp-11335,BeSe,0.0,0
mp-772597,Li2CuNiO4,0.0,0
mp-604,Nb2O5,2.5212,0
mp-631,TiC,0.0,0
mp-709186,K4LiH3(SO4)4,5.394,0
mp-974940,Rb3Mg,0.0,0
mp-772571,Li4CrO5,1.2736,0
mp-558934,Hg3ClO,1.1735,0
mp-621659,La2Ge5Ir3,0.0,0
mp-975028,Rb3Cd,0.0,0
mp-1027517,Te2Mo3W(Se2S)2,0.0,0
mp-866495,CaSnS3,0.6807999999999996,0
mp-774241,NaVAsCO7,2.0021999999999998,0
mp-672673,In2Se3,0.9081,0
mp-19039,CdMoO4,2.4682,0
mp-1009555,CrO2,0.0,0
mp-19962,Sn2Pt,0.0,0
mp-616580,UO3,1.4882,0
mp-1045679,Nb2TeO8,0.9893000000000001,0
mp-18902,Li2WO4,4.877,0
mp-5116,K6Ge2O7,3.0751,0
mp-23395,Hg2ClO,2.0369,0
mp-532413,Li5B7S13,3.5527999999999995,0
mp-13682,PdS2,0.6036000000000001,0
mp-39888,NdTi3Fe(CuO4)3,0.021600000000000286,0
mp-1047187,Mg2MnWO6,2.9569,0
mp-693682,Na25Zr11Sc5Si12(PO8)12,3.9101,0
mp-570437,CdI2,2.3562000000000003,0
mp-775133,Li4Ti3Fe3(WO8)2,0.9939,0
mp-556307,Na2Si2O5,4.4459,0
mp-756428,LaTh4O10,0.0,0
mp-23066,Pb5(SI3)2,1.8132000000000001,0
mp-505274,Na2SO4,5.026400000000001,0
mp-684958,TaO10,0.0,0
mp-28230,TlSbS2,1.6534,0
mp-8881,AlAs,1.6831,0
mp-567386,Cs2Cd3Te4,1.5570000000000002,0
mp-984353,AsAu3,0.0,0
mp-867831,DyMgRh2,0.0,0
mp-41829,BaNdNiSbO6,2.5993000000000004,0
mp-774387,V4OF11,1.4979,0
mp-696989,NaPH5C2SN3O4,3.5376,0
mp-567747,Co7Mo6,0.0,0
mp-771121,La2HfO5,4.0802000000000005,0
mp-772024,Ba3LaBr9,3.031,0
mp-1975,TmN,0.15669999999999984,0
mp-572149,Cs2Al(NO3)5,2.9065,0
mp-776059,Ti3NbCo2(PO4)6,0.18800000000000017,0
mp-28826,Gd3(MnC3)2,0.0,0
mp-18450,Lu(FeGe)6,0.0,0
mp-643081,Fe2(CO)9,2.4707,0
mp-12826,Sb8Te3,0.0,0
mp-752983,CeZr7O16,2.264,0
mp-28603,NaLiSe,2.4375,0
mp-554481,Ba2Sb4P2O17,1.8778000000000001,0
mp-1027795,Mo3W(SeS3)2,0.5583,0
mp-558276,K2Er(NO3)5,3.4458,0
mp-631522,LaOs2Rh,0.0,0
mp-977417,NdB2HF10,7.788500000000001,0
mp-866204,Pm2SiHg,0.0,0
mp-1023125,MgCuO2,0.0,0
mp-542078,K2LaP2Se7,1.4926,0
mp-4771,TiAlCu2,0.0,0
mp-24208,CrH2,0.0,0
mp-20390,PrSnPt,0.0,0
mp-14791,Ge2Te5As2,0.40920000000000023,0
mp-7368,Dy2Se3,0.36329999999999973,0
mp-2560,Ti3Hg,0.0,0
mp-706632,H15RhBr3N5,2.6607,0
mp-4964,YSbPt,0.1120000000000001,0
mp-17349,Na3In2(PO4)3,3.2115,0
mp-672200,RbC2N3,4.1966,0
mp-1043245,Co(GeO3)2,0.5783,0
mp-18789,TlCo(CO)4,3.0826,0
mp-760509,LiCuCO3,1.1411999999999995,0
mp-1007862,Fe3Ni,0.0,0
mp-10056,UCo3B2,0.0,0
mp-30315,Ca3BN3,0.5682,0
mp-510240,Rb2Ag4S3,0.19789999999999974,0
mp-8708,Mg(AuF4)2,1.9246999999999999,0
mp-541412,CsYP2O7,5.1175,0
mp-975789,PrTmMg2,0.0,0
mp-778268,Ti3CrSb2(PO4)6,0.0,0
mp-556389,UTl2(TeO4)2,1.842,0
mp-5927,Cs2Mn3Te4,0.24839999999999973,0
mp-818,SiRh,0.0,0
mp-778680,Li5Mn8(BO3)8,0.575,0
mp-676855,In(HO)3,1.9485999999999999,0
mp-22935,CsBrF,2.4765,0
mp-554503,ZnS,2.0201000000000002,0
mp-16475,Sr11Sb10,0.0,0
mp-631406,ScTl2W,0.0,0
mp-867199,Pm3Tl,0.0,0
mp-510490,GdScS3,1.1101999999999999,0
mp-558025,SiO2,5.671,0
mp-676864,K3Nd3I10,0.10299999999999976,0
mp-504560,Y2ReB6,0.0,0
mp-28159,As(BrF2)3,1.5927,0
mp-555543,ZnS,2.0250000000000004,0
mp-583213,HgI2,1.4602000000000002,0
mp-571020,CsMgH3,2.9046999999999996,0
mp-976793,LiEr2Ga,0.0,0
mp-542789,Li14Cr2N8O,2.4159999999999995,0
mp-759678,Li4Ti15O32,1.9439000000000002,0
mp-680610,Pr4In21Pd10,0.0,0
mp-15781,KLaS2,2.6928,0
mp-1062,CeMg,0.0,0
mp-767065,LiMn3F10,0.5045000000000002,0
mp-1040851,ZnSn2P2O9,1.5387999999999997,0
mp-772842,Na2Ge2O5,2.8030999999999997,0
mp-865875,Li3Ag,0.0,0
mp-10714,TmRh3C,0.0,0
mp-1044723,CaPrCr2O6,0.0,0
mp-721216,Al2Si2H4O9,4.9329,0
mp-974627,K3Tl,0.0,0
mp-687212,Cr(PO3)4,0.0025000000000000577,0
mp-773399,Li3Fe(PO4)2,2.474,0
mp-554022,Sn2P2O7,3.5193000000000003,0
mp-6622,BaNd2Ti3O10,1.9459999999999997,0
mp-2004,Cu10Sb3,0.0,0
mp-1401,ZrZn2,0.0,0
mp-662,NiSe,0.0,0
mp-18856,MoO3,1.3723,0
mp-686748,Ca2Al2Si(HO4)2,4.4653,0
mp-1041685,AlCo(WO4)2,0.0,0
mp-762538,Mn13Fe11O32,0.49960000000000004,0
mp-13034,MoN,0.0,0
mp-625445,H2SO4,5.577,0
mp-17577,Ca6MnN5,0.7347000000000001,0
mp-1046252,Zn(BiO2)4,0.4849999999999999,0
mp-767688,NaNdPCO7,0.18589999999999995,0
mp-780061,Hf2N2O,1.9270000000000005,0
mp-28969,Pr2NCl3,3.3932,0
mp-23930,H4CSN2,3.6174999999999997,0
mp-2678,VPt,0.0,0
mp-1008681,Sc,0.0,0
mp-20309,EuPb3,0.0,0
mp-779347,V4OF11,1.5215999999999998,0
mp-30719,Mg2Hg,0.0,0
mp-558411,Y2Zr2O7,2.7008,0
mp-7646,Cs2PrO3,0.0,0
mp-30878,TbTl,0.0,0
mp-863880,Li6VFe5O12,1.1956000000000002,0
mp-771261,Mn3FeO8,0.0,0
mp-696701,HPbClO,3.3026,0
mp-600050,SiO2,5.8144,0
mp-998970,TiFe2Sb,0.0,0
mp-555481,Ba6Er2Ga4O15,3.5263,0
mp-1043710,TaBiO5,0.7699,0
mp-16771,MgSe2O5,3.0276999999999994,0
mp-7444,RbSb,0.5411000000000001,0
mp-27851,Hg3(SeCl)2,1.7701,0
mp-570450,Tm3Mn3Ga2Si,0.0,0
mp-12607,PrPt,0.0,0
mp-9637,K3NpO2F5,0.2862000000000001,0
mp-866229,Ca2SnHg,0.13480000000000025,0
mp-569590,Yb4Sb6Rh7,0.0,0
mp-1014298,C3N,0.0,0
mp-864920,MgZrAu2,0.0,0
mp-23651,Na4Al3Ge3IO12,3.4006,0
mp-12948,NaMgF3,6.620699999999999,0
mp-29861,K2Mn3S4,0.0,0
mp-2287,SiRh,0.0,0
mp-862790,FeSiTc2,0.0,0
mp-555611,Cs3KRe6C6(S4N3)2,2.1868000000000003,0
mp-1041401,MgCu2(WO4)2,1.3334999999999995,0
mp-568698,Mn2H30C9N3Cl7,1.7453,0
mp-17660,SrPrCuSe3,1.0198999999999998,0
mp-20815,SnPbF4,3.3453999999999997,0
mp-779260,Gd3SbO7,2.5326999999999997,0
mp-675472,Al17(NO7)3,4.033499999999999,0
mp-769347,MgSO3,5.024900000000001,0
mp-31387,ErGaPd,0.0,0
mp-1013537,Sr3AsN,0.0,0
mp-570000,K3Mo2Br9,0.9673,0
mp-570921,CsLu(NbCl3)6,0.9451999999999998,0
mp-30838,ThPd,0.0,0
mp-1029074,Te4MoW3(SeS)2,0.0,0
mp-556962,Pr3CuGeS7,1.6603000000000003,0
mp-4871,ErP5O14,5.2303,0
mp-21144,TbCoGe,0.0,0
mp-15668,NaSe,0.4799,0
mp-977365,YbEuIn2,0.0,0
mp-757365,LaTa3O9,2.3038,0
mp-23723,K2CaH2S2O9,5.3783,0
mp-557269,Ba2Hg3(PdO2)7,0.0,0
mp-762032,Ba4Li4Ti19O44,2.3023,0
mp-558808,LiAl(SiO3)2,4.9005,0
mp-1005690,Sm2Co12P7,0.0,0
mp-571258,Er6I7,0.0,0
mp-707960,ZnH12C2(N3Cl2)2,4.6886,0
mp-763198,Li2VO2F,1.1979000000000002,0
mp-867298,CeTlAg2,0.0,0
mp-764622,LiMnV(P2O7)2,1.2189,0
mp-10688,CeO,0.0,0
mp-31953,Li2MnP2O7,3.8564,0
mp-561974,Zr7(NO2)4,2.7922,0
mp-649878,Sn(S4I)4,0.9752000000000001,0
mp-772569,Li2Ni2BiO6,0.0,0
mp-29736,YAlGe,0.0,0
mp-601383,H7CSeN3O4,0.5812999999999999,0
mp-977056,MgPt5,0.0,0
mp-557685,NbIO2,1.0522,0
mp-775918,LaTiNO2,1.2144000000000004,0
mp-9351,LuGeAu,0.0,0
mp-569802,Si3Ir,0.0,0
mp-1001082,Si(CO)2,0.0,0
mp-1042751,VAs2O7,0.0,0
mp-634446,CsAl(H2N)4,2.9105,0
mp-22515,Rb2CuPb(NO2)6,0.0,0
mp-764125,Li4Mn2(PO4)3,0.8595999999999999,0
mp-972822,SiBO3,0.0,0
mp-696123,Li10Sn(PS6)2,2.0004,0
mp-1018799,MgSc3Ru2,0.0,0
mp-757924,SbH5(Cl3O)2,1.7935,0
mp-774251,LiFePO4,3.3545,0
mp-1042551,Ca(NiO2)2,0.0,0
mp-510198,IrPb,0.0,0
mp-977402,NpInRh2,0.0,0
mp-191,YRh,0.0,0
mp-20751,Pu(CuSi)2,0.0,0
mp-667286,Re6Te7Se8,0.9468999999999999,0
mp-7123,KSb(PSe3)2,1.7976999999999999,0
mp-653930,CuAs2Pb8Cl5O9,1.5363999999999995,0
mp-607818,GeTeRh,0.2549999999999999,0
mp-972752,Si3As,0.0,0
mp-559067,KNa2AuO2,2.0423,0
mp-18542,Nd2SiTeO4,2.0488,0
mp-23315,IO3,1.8978000000000002,0
mp-17364,Th(PRu)2,0.1357999999999997,0
mp-19713,Sc3In,0.0,0
mp-567932,LaMg4Cu,0.0,0
mp-558610,Sc(ReO3)2,0.0,0
mp-680561,U5Re3C8,0.0,0
mp-22904,CaCl2,5.3548,0
mp-772744,Tm2P4O13,5.369199999999999,0
mp-679669,NaZr2SN2Cl,1.8890000000000002,0
mp-971853,Zn3B,0.0,0
mp-30047,Sn2Mo,0.0,0
mp-631294,HfMoSe,0.0,0
mp-559094,Cu2H3ClO3,0.0,0
mp-9228,HgSeO3,2.5448999999999997,0
mp-757901,LiSnPO4,3.3427,0
mp-675882,Dy2TiO5,2.7184,0
mp-1407,Rh3Se8,0.0,0
mp-862876,PmAg2Pb,0.0,0
mp-780092,V6O5F19,2.041,0
mp-16765,Zr2Te2P,0.0,0
mp-977164,Li3H3N2,1.9572,0
mp-697264,CdH2SeO4,3.7960000000000003,0
mp-23587,HoSeClO3,4.357200000000001,0
mp-849416,Li4Fe2Cu3O10,0.0,0
mp-861569,CrSbO4,1.4211,0
mp-976236,NaCaTl2,0.0,0
mp-674508,RbPbF3,3.7914999999999996,0
mp-1019591,Ce3ZrO8,1.8144999999999998,0
mp-864619,YbMgSi,0.0,0
mp-974581,ReBiO3,0.0,0
mp-570351,Na2Sn3Au,0.0,0
mp-22052,Zn(InS2)2,1.1222000000000003,0
mp-37947,Na4C2O5,2.7228,0
mp-770417,Li4Mn2VNi3(PO4)6,1.4053,0
mp-20464,SrPrO3,0.0,0
mp-20617,Th3Si2,0.0,0
mp-610738,Zr(InBr3)2,2.3857,0
mp-21300,Yb5Ge4,0.0,0
mp-706631,Na2B3HO6,4.6148,0
mp-721876,AlP2H5O9,5.5286,0
mp-23549,Bi3B5O12,3.283,0
mp-1043901,ZnCuBiO5,0.1976,0
mp-568156,Y4CdRu,0.0,0
mp-8098,InGaO3,1.3419999999999996,0
mp-861510,Pr2SnHg,0.0,0
mp-753774,KTmO2,3.9742999999999995,0
mp-1009730,Ca2Sn,0.6639999999999997,0
mp-775285,Li2CoNi3O8,0.07960000000000012,0
mp-24399,MgH10SO9,4.9785,0
mp-1008922,CuN,0.0,0
mp-33533,La2UTe4,0.0,0
mp-3076,LaSnPt,0.0,0
mp-1049266,LaMgTaCrO6,2.1235,0
mp-15994,Hg(PO3)2,2.5782000000000003,0
mp-755950,Ba2Sc2O5,2.7100000000000004,0
mp-686717,Fe2NiSe4,0.0,0
mp-556488,RbNiF3,4.6929,0
mp-1046983,Nb2CrO8,0.665,0
mp-638078,CsTbZnTe3,1.3716999999999997,0
mp-558896,Yb3(SF2)2,0.0,0
mp-559539,Li2U3P2O15,2.2683,0
mp-571225,CdI2,2.4015000000000004,0
mp-280,PuC,0.0,0
mp-510535,CsB5O8,5.8969000000000005,0
mp-567413,TbInPt,0.0,0
mp-980645,YErRh2,0.0,0
mp-705340,LiVP2O7,2.0709999999999997,0
mp-640458,Pu2InNi2,0.0,0
mp-775180,Li2Co3WO8,0.528,0
mp-867,ErCd,0.0,0
mp-37498,Li5NCl2,1.9488,0
mp-554223,RbScAs2O7,3.5429,0
mp-763698,Li4Nb3V3(CoO8)2,0.0,0
mp-9363,RbNdS2,2.2645999999999997,0
mp-801,Mo3Os,0.0,0
mp-24426,HgH2SeO5,1.4815,0
mp-24165,Li2H2SeO5,3.9951999999999996,0
mp-976763,NiAsO3,0.0,0
mp-763549,LiMn(CO3)2,1.4156,0
mp-541180,Te3Pt2,0.0,0
mp-6280,Al2Si(O2F)2,5.6953,0
mp-558749,RbMnF3,2.9422,0
mp-754107,Y(BiO2)3,2.038,0
mp-779337,Li5V6O5F19,1.1397,0
mp-24460,MgH6(SO4)4,5.9617,0
mp-644828,AuXe2F17,1.3692000000000002,0
mp-756131,Sr2CaI6,3.6483,0
mp-1042261,Ca(AgO2)2,0.6968,0
mp-676110,Tb14(PbSe8)3,1.8167000000000004,0
mp-677416,Na5Mg5In3(SO4)12,3.6949999999999994,0
mp-696590,TiH8(NF3)2,4.7166999999999994,0
mp-1019570,Ca8Si5O18,4.545,0
mp-1045690,Sr2YTlSn2O7,0.0,0
mp-769119,YbScO2,0.0,0
mp-29145,H3N,4.3286999999999995,0
mp-42897,NaPrTiNbO6F,2.811,0
mp-1030340,Te6Mo3WS2,0.0,0
mp-1002229,ErN,0.0,0
mp-19484,BaCaV2O7,3.2318000000000002,0
mp-684821,NaCa2SiO4F,2.5833,0
mp-623038,Nb5As3,0.0,0
mp-17895,K3BeF5,6.2164,0
mp-608080,Al3(PO4)4,0.020799999999999486,0
mp-631471,YScBe,0.0,0
mp-30814,Zr9Ni11,0.0,0
mp-983123,HfMgAu2,0.0,0
mp-709432,NaH3C4S4(OF)12,6.2957,0
mp-764514,LiFe2(BO3)2,1.5942999999999998,0
mp-849079,NiS2,0.0,0
mp-20606,Tb3In5S12,1.3402000000000003,0
mp-1026974,MoWSe3S,0.6717,0
mp-257,DyIn,0.0,0
mp-935267,Li4UC3O11,2.2974,0
mp-757434,LiSi6Bi9O26,2.8648,0
mp-738615,HgH3CSO3,2.8053999999999997,0
mp-5970,Ba(CuS)2,0.9028,0
mp-989518,Rb2SBrCl6,0.0,0
mp-7892,Mn2AlB2,0.0,0
mp-15182,Rb2LiCo(CN)6,4.2833,0
mp-22570,Mg5In2,0.0,0
mp-561382,NbBi4BrO8,1.4756999999999998,0
mp-634859,CaO2,2.7345,0
mp-567416,Ho3Mn3Ga2Si,0.0,0
mp-1044778,PrZn(MoO3)2,1.1840000000000002,0
mp-995221,H2CSO4,5.8997,0
mp-17260,Zn3SiNi2,0.0,0
mp-11350,CaAl9Co2,0.0,0
mp-756867,LiCuBO3,0.0,0
mp-20229,Sm3InC,0.0,0
mp-684641,Fe2S,0.0,0
mp-1818,SiF4,7.7173,0
mp-770687,LiCr2O5,0.0,0
mp-554218,Ti4P6PbO24,2.7893,0
mp-979269,Tl3Cd,0.0,0
mp-10226,NaYS2,2.2807,0
mp-640899,Ce2Zn2Cu5,0.0,0
mp-754162,LiGdO2,3.0625999999999998,0
mp-984697,EuLu2O4,0.1374000000000004,0
mp-752641,Lu3TaO7,3.3662999999999994,0
mp-759263,Li3Bi3(PO4)4,3.4515,0
mp-754113,TmClO,5.2921,0
mp-1046916,BaMgTi4O8,0.0,0
mp-555948,C37F21,2.018,0
mp-10021,Ga,0.0,0
mp-783909,Li2MnSiO4,2.8790999999999998,0
mp-972187,ZrSiPt,0.0,0
mp-674017,Nb17Ir3Se40,0.0,0
mp-9971,YGe,0.0,0
mp-1016145,CaMn3O6,0.0,0
mp-17158,Ta3Co3C,0.0,0
mp-570753,Tl3PbBr5,2.9075000000000006,0
mp-1018089,CaZnSe2,1.5191,0
mp-12806,Cu2GeTe3,0.0,0
mp-1008926,CrTe,0.0,0
mp-6016,NdAlGe2O7,3.26,0
mp-8102,W3N4,0.0,0
mp-861501,AgHgPd2,0.0,0
mp-12378,LaSnRh,0.0,0
mp-29417,Na3ScBr6,3.3731,0
mp-23291,PbCl2,3.7939,0
mp-20254,Na2Te2O7,0.7000000000000002,0
mp-11069,YbAgSn,0.0,0
mp-1027286,TeMoWSeS2,0.0,0
mp-758259,Li4Ti3Cu3(TeO8)2,0.0,0
mp-780226,Li3LaO3,3.8721999999999994,0
mp-570166,Zr6Si7Ni16,0.0,0
mp-761135,Li3Sb2(PO4)3,3.3393,0
mp-11957,CaSn2Ir,0.0,0
mp-1007824,GaN,1.1047,0
mp-864622,Nd2IrPd,0.0,0
mp-20975,CeIn5Ir,0.0,0
mp-2516,YZn,0.0,0
mp-560941,SiO2,5.7701,0
mp-30957,Pr(PO3)3,5.4756,0
mp-753517,SrBi5O9,0.0,0
mp-698289,BH11AuC4IN2,1.9586999999999999,0
mp-27853,Hg3(TeBr)2,1.6997,0
mp-1314,Li12Si7,0.0,0
mp-569410,PCl5,1.6455000000000002,0
mp-146,V,0.0,0
mp-1046050,Cr5O7,0.7811999999999997,0
mp-1611,SmO,0.0,0
mp-973561,LiCe2Ru,0.0,0
mp-9400,CeAlSi2,0.0,0
mp-780448,Ho2Sb2O7,1.8317999999999994,0
mp-768326,Na4Sn2C4SO16,1.1476,0
mp-1042894,Zn2Fe3O8,0.0,0
mp-755253,LiZrO2,0.0,0
mp-16505,La3Al11,0.0,0
mp-10470,NbSiRh,0.0,0
mp-22247,ErSiRu,0.0,0
mp-14532,NaTa3O8,2.68,0
mp-21012,Si3Rh5,0.0,0
mp-772181,Cs3GaO3,2.1903,0
mp-862943,NaPmHg2,0.0,0
mp-685138,U2AsSe,0.0,0
mp-639263,Ce3MnBi5,0.0,0
mp-20694,K2Pb2O3,1.6906999999999996,0
mp-9806,KGd(CO3)2,2.699,0
mp-7714,Li4UO5,2.0777,0
mp-973286,LiLu2Pd,0.0,0
mp-754204,LiGdO2,3.1304999999999996,0
mp-18204,Ba5Yb8Zn4O21,0.0,0
mp-613612,Yb(Fe2Ge)2,0.0,0
mp-779518,BaP4O11,5.2234,0
mp-417,MnRh,0.0,0
mp-568790,Ca14GaAs11,0.5969000000000002,0
mp-1030695,Te2MoWSe2,0.0882000000000005,0
mp-775785,Hf2N2O,2.0252999999999997,0
mp-859876,Ge2N2O,2.3278999999999996,0
mp-27254,Ba(TeO3)2,1.7482000000000002,0
mp-622203,BaMnGaF7,3.624,0
mp-1368,Zn8Cu5,0.0,0
mp-3278,Pr(SiPd)2,0.0,0
mp-697683,PH8N3O2,4.5076,0
mp-14150,Ca4Al6SO16,4.6683,0
mp-554876,AsCS2N2OF5,2.8282999999999996,0
mp-769213,Dy2(SeO4)3,3.0307000000000004,0
mp-763577,Li3Ti2V2O8,0.0,0
mp-510581,PrNiSnH2,0.0,0
mp-561525,K2Ga2B2O7,3.7999,0
mp-772788,Ba2Cu2O5,0.7701,0
mp-4732,UGa5Co,0.0,0
mp-754282,SrO,2.9368000000000003,0
mp-41331,CaGa2Cu3(SbO6)2,0.6444000000000001,0
mp-676483,NaLiZnP2O7,4.2378,0
mp-759224,Li5CuF8,0.7916000000000001,0
mp-867735,PrSmO2,0.0,0
mp-558853,AsC3N3F8,4.0149,0
mp-2551,DyCo5,0.0,0
mp-1003766,NaMn2O4,0.4962,0
mp-697044,Ba2H6Os,1.9655,0
mp-23197,TlI,1.8128000000000002,0
mp-987,ZnCu,0.0,0
mp-975253,RbPr3,0.0,0
mp-559426,Pr2Zr2O7,3.4620999999999995,0
mp-769632,Mn7CrO16,0.9527,0
mp-779752,Na5V2P(CO4)4,0.008499999999999952,0
mp-675430,Sm4Ag2Se7,1.5147,0
mp-3642,ScCuO2,2.3309,0
mp-19356,YbMnO3,0.0,0
mp-707396,Na3As3(HO5)2,2.8693999999999997,0
mp-10932,ErSF,1.3243999999999998,0
mp-31499,Mg29Ir4,0.0,0
mp-757997,LiSn(PO3)4,0.0,0
mp-559829,SiO2,6.106,0
mp-32682,Te8Ir3,0.0,0
mp-561015,Y9C4I8O,0.0,0
mp-637224,Pu2O3,0.0,0
mp-862660,LiEr2Rh,0.0,0
mp-10543,K3SbO4,1.8325,0
mp-20374,Ho2C(NO)2,3.9960999999999993,0
mp-998592,RbCaI3,3.5984999999999996,0
mp-22211,V3Sn,0.0,0
mp-542718,Er2Ni12As7,0.0,0
mp-569582,La4MgCo,0.0,0
mp-28878,RbTe6,0.0,0
mp-21379,SmInIr,0.0,0
mp-10879,CeAl,0.0,0
mp-21618,NdAl3(PbO4)2,2.9856999999999996,0
mp-17715,SrTa2O6,3.2289999999999996,0
mp-556369,CdHg2SeO6,0.9315,0
mp-758253,CaH12(IO6)2,4.2475,0
mp-10049,MnAsRu,0.0,0
mp-6812,KBaPO4,4.9459,0
mp-1018022,NbInS2,0.0,0
mp-866279,CaCdPd2,0.0,0
mp-640825,Sr5(InBi3)2,0.0,0
mp-780876,Li6Fe(OF)3,2.7067,0
mp-7583,SiS2,3.2912,0
mp-17987,Tb11O20,0.0,0
mp-775849,Zr2N2O,1.6698000000000004,0
mp-10897,PrAl2Ni3,0.0,0
mp-22685,TbInCu2,0.0,0
mp-557256,RbP3PbO9,4.5591,0
mp-561214,SbH3CSCl6O,2.0032,0
mp-554788,AsSXeNF10,2.9772000000000003,0
mp-10824,ZnCu2GeSe4,0.0,0
mp-1045963,Ta2Zn2CuO8,0.08389999999999986,0
mp-978568,Si3MoPt2,0.0,0
mp-4024,DyAgTe2,0.9018000000000006,0
mp-15039,Ba2Yb(CuO2)4,0.0,0
mp-558434,Ca3CuRhO6,0.0,0
mp-6481,Na2ZnSi3O8,3.9452,0
mp-568855,K2Hg(PSe3)2,1.3921999999999999,0
mp-27359,CsScCl3,0.0,0
mp-627867,Si4H2O9,2.0370000000000004,0
mp-972296,ZrOsO3,0.0,0
mp-8627,SmBO3,5.1718,0
mp-606617,CuSb2(XeF8)2,0.06940000000000035,0
mp-662721,TcC4IO4,2.3319,0
mp-720586,CaH4NClO5,3.5639000000000003,0
mp-28520,Rb2SnTe5,0.5848,0
mp-28809,TlBS3,1.7904000000000004,0
mp-17827,Nd3SiAgSe7,1.4489999999999998,0
mp-3788,SrAl4O7,3.7468000000000004,0
mp-604295,HgH16(Br3N2)2,2.0737,0
mp-1047139,Ca2VWO6,0.8920000000000003,0
mp-559642,CaZrAl9BO18,4.8628,0
mp-779316,VOF,0.8796000000000004,0
mp-21279,EuSi,0.0,0
mp-19125,Na4W(NO)2,1.9524000000000001,0
mp-28046,AlP2I9,1.6553,0
mp-997030,CaAgO2,0.0,0
mp-634657,NaHS,3.1576999999999997,0
mp-10971,LiErO2,4.171,0
mp-753747,Ta3O7F,2.2236000000000002,0
mp-22889,ZnCl2,4.04,0
mp-773319,Mn3Cr2Te3O16,0.21930000000000005,0
mp-867978,SmInRh2,0.0,0
mp-9063,RbSe,0.9119999999999999,0
mp-558186,RbLu3F10,6.7502,0
mp-3999,Y(SiPt)2,0.0,0
mp-559573,UAgIO6,1.2936999999999999,0
mp-553121,Sm2IO2,0.0,0
mp-11482,MoIr3,0.0,0
mp-942700,LiNiSO4F,4.1658,0
mp-27643,K3MoCl6,1.6431,0
mp-19341,Tl2WO4,3.319,0
mp-767442,Fe3CuNi2(PO4)6,0.0,0
mp-769877,Li7Nb2Fe3O16,0.0,0
mp-19777,Yb3InC,0.0,0
mp-20007,MnNiGe,0.0,0
mp-8806,Sr2Cu2O3,0.0,0
mp-4822,Y(SiPd)2,0.0,0
mp-849260,ReH8(I3N)2,0.7186000000000001,0
mp-1009222,MnTe,0.0,0
mp-2689,ThFe5,0.0,0
mp-697715,H12AuC4N,3.0964,0
mp-29694,KAuBr4,0.8103,0
mp-17512,Zn(AuF4)2,1.6950000000000003,0
mp-570683,PrInAg2,0.0,0
mp-1020013,Li2S2O7,5.5360000000000005,0
mp-780232,Hf2N2O,2.0774999999999997,0
mp-758054,LiAgF4,1.0302,0
mp-761780,LiCoPO4,2.6111999999999997,0
mp-583,CoAs,0.0,0
mp-22965,BiTeI,1.2741999999999996,0
mp-974584,ReAu3,0.0,0
mp-720432,Na2Ca9NdY5HoF41,6.1081,0
mp-28774,KSnF3,3.5114,0
mp-754850,NaTiS2,0.0,0
mp-1041108,HoMgV2O6,0.8795000000000002,0
mp-5285,SrSO4,5.9094,0
mp-4962,CoSbS,0.0,0
mp-28171,K3IO,1.0263999999999998,0
mp-19080,Na2Mn3O7,1.4056999999999997,0
mp-738684,K5YH8(CO2)8,4.4154,0
mp-571402,Zr2Al3C5,0.0,0
mp-572291,K3ClO,1.0785,0
mp-778772,Li3Cu3(PO4)2,0.7242999999999995,0
mp-1019279,SrZnSn,0.0,0
mp-29384,Rb3TlCl6,2.274,0
mp-761563,Mn2FeO3,0.11319999999999997,0
mp-762249,V(CO3)2,1.566,0
mp-644486,KAlH4,4.8048,0
mp-767414,K2HoPCO7,4.452,0
mp-543047,KNaCu(Si2O5)2,0.8046000000000002,0
mp-632319,CsH,2.5693,0
mp-865123,MgGaPd2,0.0,0
mp-1022804,SrYMg6,0.0,0
mp-556046,SrGa2B2O7,3.9684999999999997,0
mp-690799,Zr(TiH2)2,0.0,0
mp-971819,YLuIn2,0.0,0
mp-29575,Cs3Fe2Cl9,0.9037,0
mp-761817,LiNbVO4,1.2698,0
mp-984785,AcMg3,0.0,0
mp-4829,Na2ThF6,6.4627,0
mp-13139,SrLiGe2,0.0,0
mp-12957,O2,1.3309,0
mp-5709,Tl3PO4,2.6397999999999997,0
mp-27669,HS3N,3.0889,0
mp-755947,Li3(CrS2)4,0.0,0
mp-753912,CaTb2O4,3.1189999999999998,0
mp-554623,Sm2Ta2Cl2O7,3.1249,0
mp-571093,BaAlSiH,0.7094,0
mp-580797,Ca(BH)2,0.0,0
mp-637926,LaGaNi,0.0,0
mp-772666,Li2Cr2O7,2.4383999999999997,0
mp-1651,Th2Al,0.0,0
mp-378,ErSi,0.0,0
mp-1043970,CaLaTaFeO6,2.6867,0
mp-1018800,MnCuAs,0.0,0
mp-972925,ScZn2Au,0.0,0
mp-983410,Ho2CuPd,0.0,0
mp-20947,CaRuO3,0.0,0
mp-7473,LiCu2Si,0.0,0
mp-556577,Na3Sb3(AsO7)2,1.5102000000000002,0
mp-1030512,TeMoWSeS2,0.0,0
mp-989178,ScOF,4.3361,0
mp-1025851,Te2Mo(WS2)2,0.0,0
mp-31083,PrSi2Ru,0.0,0
mp-560458,Rb2U2O7,1.6672,0
mp-558116,KMnF4,2.0244,0
mp-30314,Cs2PdCl4,1.7012999999999998,0
mp-567240,Ba(MnSb)2,0.0,0
mp-867155,Sr5Cd2Sb5F,0.0,0
mp-23330,NaClO3,5.6182,0
mp-1047117,Mg2CoWO6,2.6152,0