mp_id,formula,band_gap,fidelity
mp-541066,Mg2B4Ru5,0.0,0
mp-1046770,Sr2Cr2GaO7,0.0,0
mp-23261,I2O5,2.7173000000000003,0
mp-758052,LiCuF3,0.0,0
mp-755142,La2MgO4,3.375400000000001,0
mp-616255,In2Sn3S7,0.5128000000000004,0
mp-850957,Na6Ti2O7,3.1128,0
mp-24192,ErH2,0.0,0
mp-29474,Na2Ti3Cl8,0.0,0
mp-34418,AgPF6,3.2359999999999998,0
mp-31295,La3(Sn3Pd2)2,0.0,0
mp-510293,Pb3SeO5,2.4614000000000003,0
mp-657300,RhSCl5,1.5875000000000001,0
mp-23229,FeCl2,0.03569999999999984,0
mp-38117,Ba(GaTe2)2,0.5282,0
mp-570744,Si3As4,0.4043000000000001,0
mp-777749,Y2Sb2O7,1.9164999999999992,0
mp-763017,Fe2O3F,0.0,0
mp-975769,PrYZn2,0.0,0
mp-758693,Na4Al4H10O13,4.3167,0
mp-20862,CoSe2,0.0,0
mp-556194,SrSbSe2F,0.12010000000000032,0
mp-690650,ZnH4(ClO3)2,2.5049,0
mp-567974,Ca3SiBr2,0.0,0
mp-754322,Sr2CuO4,0.0,0
mp-1029225,Te2MoW3(SeS2)2,0.0,0
mp-583084,Rb3Er3(PS4)4,2.2833999999999994,0
mp-15685,Na2CuAs,0.6589999999999998,0
mp-760378,LiTi2O4,0.0,0
mp-675614,K2In12Se19,0.8127999999999997,0
mp-12952,HfGaAu,0.0,0
mp-1014138,ZrB,0.0,0
mp-764375,Li2VF6,1.9707999999999999,0
mp-569224,SbI3,2.2015,0
mp-604273,Cu2GeP2(H5O7)2,0.6064999999999999,0
mp-6916,Sm(BC)2,0.0,0
mp-561,Nb3Se4,0.0,0
mp-571512,TePt,0.0,0
mp-556376,SiO2,2.8049000000000004,0
mp-9833,PrGaO3,0.0,0
mp-12905,Ba3CrN3,0.0,0
mp-2006,V3Ir,0.0,0
mp-557655,GdTlS2,1.6705,0
mp-756160,Er3TaO7,3.3585,0
mp-769239,CeReO4,0.0,0
mp-638137,CSeN,2.1805,0
mp-770400,Li2AlNiO4,1.6721000000000001,0
mp-675770,Nd3U2O10,0.2019000000000002,0
mp-625927,H5NO,4.5812,0
mp-637194,Cs3Sc2Cl9,3.9353000000000002,0
mp-625087,U(HO2)2,1.9022999999999999,0
mp-1001918,HfC,0.0,0
mp-569685,LiZnP,0.0,0
mp-570321,InSb2Se4Br,1.1267000000000005,0
mp-761686,Na2BiO3,1.1827000000000005,0
mp-675410,Ba2U2O3,0.0,0
mp-997011,CuBrO2,0.4388,0
mp-604613,La2Ga12Ni,0.0,0
mp-643790,CeNiSnH,0.0,0
mp-1043665,YTe(WO4)2,1.3395000000000001,0
mp-558838,NiPtF6,2.0413,0
mp-2039,ScMn2,0.0,0
mp-676598,TlPbCl3,2.6017,0
mp-555576,KNaS2O7,5.218100000000001,0
mp-865117,NaErTl2,0.0,0
mp-771958,Ba3LaCl9,4.3826,0
mp-999390,NbCr3,0.0,0
mp-7337,NdAl3(BO3)4,5.3192,0
mp-31093,Dy2CoSi2,0.0,0
mp-632684,NaPH3NO3,5.1072,0
mp-764257,W7(OF5)6,3.4979,0
mp-601148,I,0.0,0
mp-774382,Li2MnF4,3.8068,0
mp-19264,Co3(PO4)2,2.713,0