mp_id,formula,band_gap,fidelity
mp-9579,AlTlSe2,0.5872999999999999,0
mp-505090,Na(CuO)2,0.0,0
mp-865426,YbNdAg2,0.0,0
mp-975812,PrSm3,0.0,0
mp-554229,CsAs3O8,2.2357,0
mp-1029733,Sr3Al3N5,2.1422999999999996,0
mp-998762,MnTlF3,2.6287000000000003,0
mp-652353,PC2S2N3,3.2539000000000002,0
mp-7875,Ba(MgSi)2,0.0,0
mp-12778,VOs,0.0,0
mp-607298,Cs2Pd(ICl2)2,0.8764000000000001,0
mp-761472,Co2CuO4,0.0,0
mp-1018880,PaSb2,0.0,0
mp-1046503,Ba2Ca2Tl2Cr3O10,0.0,0
mp-24809,CaH2,0.6534999999999997,0
mp-770414,LiAlVO4,1.709,0
mp-975793,PrTmTl2,0.0,0
mp-768097,V3H4NO8,2.1017,0
mp-707571,Na3SiH11O9,4.1941999999999995,0
mp-30749,Zr5Ir3,0.0,0
mp-2552,TeO3,1.1502999999999997,0
mp-20305,InAs,0.0,0
mp-567687,CrI2,0.5076,0
mp-975512,InSb3,0.0,0
mp-627397,In2Se,0.0,0
mp-30350,Li2AgSn,0.0,0
mp-849507,LiCoOF2,1.1804999999999999,0
mp-866883,Ca2SnS4,1.3308,0
mp-22861,NiBi,0.0,0
mp-9258,SiO2,4.0015,0
mp-1043406,Ti(Si2O5)2,2.2489,0
mp-15053,Y(PdO2)2,0.0,0
mp-865808,LiNd2Ir,0.0,0
mp-1018045,Rb,0.0,0
mp-504425,Nb3As,0.0,0
mp-12244,Cs3TiF7,2.9901,0
mp-989590,Ca6Sn2NF,0.1352000000000002,0
mp-28879,Ca5P8,1.1418000000000004,0
mp-38819,Ho10Ti6O27,1.7341999999999995,0
mp-567966,RbZr6CCl15,1.1281,0
mp-560170,Nd5Te2Cl3O10,3.3381,0
mp-568052,K2Ga3,0.21829999999999994,0
mp-28402,Zn(Bi3O5)4,0.0,0
mp-985610,NaAg(CO2)2,1.6802,0
mp-758101,Li4Cu3F10,0.0,0
mp-3630,HoInAu,0.0,0
mp-25418,LiTiPCO7,2.8265000000000002,0
mp-6051,K2Hg(CN)4,5.856999999999999,0
mp-558573,Y2O3,3.9552000000000005,0
mp-519,USb,0.0,0
mp-556592,TlBi(PS3)2,2.0311999999999997,0
mp-862742,Pm2ZnGe,0.0,0
mp-755216,TmBiO3,2.4417999999999997,0
mp-971662,Si,1.3094000000000001,0
mp-655027,SrH6(CO3)2,3.3466,0
mp-676464,Cd3AsI3,0.8399000000000001,0
mp-24375,TlH4NCl4,2.4129,0
mp-504579,Ag6Mo10O33,1.9973,0
mp-1018640,Tm(CuS)2,0.0,0
mp-865514,YSnAu2,0.0,0
mp-5983,Tm(CoGe)2,0.0,0
mp-561304,KAg3As2S5,1.6822999999999997,0
mp-16600,Dy2B4O9,5.6211,0
mp-1041860,Te(WO4)2,2.1773999999999996,0
mp-780157,LiFeH12(SO7)2,2.3468,0
mp-997034,BaCuO2,0.0,0
mp-2223,GaPt2,0.0,0
mp-9370,RbLuS2,2.4006,0
mp-628593,Yb5(InSb3)2,0.0,0
mp-582076,CsW3Br3Cl4,2.9901999999999997,0
mp-865529,Ti2NiIr,0.0,0
mp-721299,H13S2N3O8,5.124,0
mp-29961,Sr(C2N3)2,4.6654,0
mp-644302,NaHSeO4,3.4353999999999996,0
mp-24180,RbH6C2S2NO4,5.1913,0
mp-5259,RbAlF4,6.9365,0
mp-5795,CaMg2N2,1.9968999999999997,0
mp-541863,ZnHgC4(SN)4,2.4901999999999997,0
mp-1048318,Ca2FeWO6,2.1866999999999996,0
mp-568803,Mg(B6C)2,2.1397000000000004,0
mp-698587,TiNiO3,1.7081999999999997,0
mp-866863,Ca3SnS5,2.1946000000000003,0
mp-973648,FeRhO3,0.0,0
mp-27987,BrF5,3.4378,0
mp-540920,CaP2H20C4(N2O3)4,5.135599999999999,0
mp-761285,Sc2V2O7,0.6056999999999997,0
mp-849493,Li2FeF4,3.7024,0
mp-19171,Y(FeO2)2,0.0,0
mp-696795,Cu2H3NO6,0.0,0
mp-20240,YbIn2Pd,0.0,0
mp-583740,Zr7P4,0.0,0
mp-29426,Y5C2I9,0.6358999999999999,0
mp-643829,AlSiHO4,5.5699,0
mp-696485,Na2TeHSO5F3,3.4407,0
mp-779902,Li3V2P4(HO8)2,0.8773999999999997,0
mp-971779,ZnRh3,0.0,0
mp-13382,CeZnPd,0.0,0
mp-1046958,MgSn3(P2O7)2,1.9404,0
mp-867138,EuSnAu2,0.0,0
mp-754353,Zr3N4,0.9843999999999999,0
mp-1044626,Zn(SnO2)2,0.0,0
mp-735589,CaV2P3HO12,1.5189,0
mp-560085,Bi24Cl10O31,2.1162,0
mp-976147,PrEr3,0.0,0
mp-10600,La3AlC,0.0,0
mp-972839,SiBO3,0.0,0
mp-1042970,Ca(FeO2)2,1.7561000000000004,0
mp-1003322,CaMnO2,1.9756999999999998,0
mp-567269,TeI4,1.8285999999999998,0
mp-559760,ScIO,1.9708999999999994,0
mp-1046784,BaTlV2O6,0.0,0
mp-773453,K2FePCO7,2.1279999999999997,0
mp-20746,YbIn2Au,0.0,0
mp-567842,TaBe12,0.0,0
mp-561513,S,2.4271,0
mp-585305,Li9Bi3P8O29,4.1806,0
mp-707453,K5NaP3(HO4)3,4.6396999999999995,0
mp-721618,SrB6(H4O7)2,5.2619,0
mp-625367,LuHO2,4.1067,0
mp-541436,NbTl(PO4)2,2.8409,0
mp-770370,V3BO6,1.2364999999999995,0
mp-21844,UTl3,0.0,0
mp-675751,Zr7N2O11,3.1558,0
mp-568631,Lu3Mn3Ga2Si,0.0,0
mp-762295,K2Mn3V2(HO5)2,1.9512,0
mp-30457,LuNiBi,0.013399999999999856,0
mp-530905,Ba23U8O48,0.0,0
mp-977148,LiBeH3,4.3797999999999995,0
mp-6081,Ba2Ti(SiO4)2,3.7171000000000003,0
mp-626201,H5ClO6,5.3999,0
mp-82,Tl,0.0,0
mp-2416,YF3,7.533799999999999,0
mp-2909,HoAlNi,0.0,0
mp-15727,La(P3Ru)4,0.0,0
mp-864630,LiMg2Hg,0.0,0
mp-1042504,BaAlCuMoO5,0.0,0
mp-504540,Na11U5O16,0.0,0
mp-978304,Mg3Ta,0.0,0
mp-569952,K2CuCl3,2.0520000000000005,0
mp-531956,Hf3Sc4O12,4.1098,0
mp-775762,AgPO3,2.1167999999999996,0
mp-36577,Sr(AsS2)2,1.7016,0
mp-680395,Li3As7,1.3268999999999997,0
mp-979283,V3Cu,0.0,0
mp-979961,Yb2AgHg,0.0,0
mp-654812,CdCO3,0.0,0
mp-569525,NaLi5N2,0.3542,0
mp-23055,RbCuCl3,0.0,0
mp-567408,Sm(SiOs)2,0.0,0
mp-763290,V3(O2F)2,0.6421999999999999,0
mp-555096,PrS2,0.3433999999999999,0
mp-680063,K3La2(NO3)9,3.466,0
mp-981390,HgBi3,0.0,0
mp-568531,Bi2Pt,0.0,0
mp-757688,BaNb8O14,0.33809999999999985,0
mp-560905,Na2NpH2(CO3)3,0.1942999999999997,0
mp-556892,InBiO3,2.733200000000001,0
mp-570680,Er(GeRh)2,0.0,0
mp-755610,Ba6HfO8,2.4348,0
mp-707710,SrMgUH24C3O23,2.2667,0
mp-998430,CsInI3,1.4545000000000001,0
mp-2044,Zr5Al3,0.0,0
mp-780370,Sm3Al5O12,4.1378,0
mp-31508,KPb2Br5,3.0729,0
mp-27018,SnPO4,2.4403000000000006,0
mp-553961,ScNbO4,3.3047000000000004,0
mp-540482,LiCrP2O7,1.2397,0
mp-686617,Nd10Si10N17ClO9,2.9399,0
mp-13535,Tb2ZnNi2,0.0,0
mp-510418,Cu5Si2S7,0.0,0
mp-20792,Ca2InPd2,0.0,0
mp-561065,MgTi2(PO5)2,3.1210999999999993,0
mp-850412,Li7TiCr3(PO4)6,0.0,0
mp-16431,Nd(FeP3)4,0.0,0
mp-1020032,Li8N3O,0.0,0
mp-675780,KNb3F9,0.0,0
mp-541823,TlCr5S8,0.1426999999999996,0
mp-752526,Lu2TeO6,3.0987,0
mp-1011376,CeSe2,0.0,0
mp-1043235,V(GeO3)2,0.0,0
mp-23538,KFeCl3,0.0477000000000003,0
mp-540850,TlPF6,6.3698,0
mp-977578,Zr2TcPd,0.0,0
mp-759636,Nb5O12F,0.0,0
mp-782669,Mn4O7F,0.0,0
mp-546787,KNO2,2.4085,0
mp-867727,Li5(BiO3)4,0.0,0
mp-696969,Sr(H2N)2,2.3795,0
mp-2119,TbC2,0.0,0
mp-1041291,BaMgSnF7,0.0,0
mp-20010,DyCuGe,0.0,0
mp-570339,Tl4CdI6,2.1721,0
mp-5024,ZrP2O7,4.4725,0
mp-556539,BaSb2Xe5F22,2.5318,0
mp-763,MgB2,0.0,0
mp-24534,CaH4SeO6,3.8552,0
mp-29690,Tl2Te2O5,2.8109,0
mp-756437,SrLaBr5,3.0472,0
mp-188,AlPt3,0.0,0
mp-1315,MgS,2.7628000000000004,0
mp-555109,TmNbO4,3.4278000000000004,0
mp-706620,H6S2N2O3,0.05870000000000003,0
mp-756637,Ba3GeO5,2.5961999999999996,0
mp-569405,B3H5,3.697,0
mp-1018802,MnGaGe,0.0,0
mp-1029264,Te4MoW3Se4,0.38180000000000014,0
mp-568812,CdH16C4(NCl2)2,3.3967,0
mp-756978,Ba3(ClO)2,2.3346999999999998,0
mp-772131,Li3Fe3SbO8,0.7864,0
mp-1043375,MgSi4SnO10,2.4398999999999997,0
mp-721901,K2B4H8O11,5.2011,0
mp-22060,Nb3In,0.0,0
mp-22662,TiGaPt,0.0,0
mp-7291,CrP2,0.0,0
mp-628680,K5Th(PS4)3,1.9602,0
mp-567273,HfI4,3.2851999999999997,0
mp-863745,RbSrCO3F,4.1259,0
mp-631421,CrGaTe,0.0,0
mp-778744,Li2MnNi(PO4)2,3.0241,0
mp-721699,CaH16C4(NO)10,3.3534,0
mp-695982,BaNaP3(HO2)6,5.144299999999999,0
mp-554768,Sm4Br6O,0.0,0
mp-7827,K2Ni(CN)4,3.0257,0
mp-10351,Tm3GaC,0.0,0
mp-7045,RbGdS2,1.7435,0
mp-7236,Ho,0.0,0
mp-570127,CdI2,2.3392,0
mp-570453,Ba4W(N2Cl)2,2.208,0
mp-673837,Ba8Bi4O17,0.7450000000000001,0
mp-540572,NCl3,2.1636,0
mp-626565,Ti3H2O7,2.6193999999999997,0
mp-7618,Cs3YF6,5.3385,0
mp-1968,La2O3,3.8141,0
mp-23966,MgH2SeO5,3.4068,0
mp-757874,LiSiBiO4,3.0288,0
mp-795639,Rb2Be4Pt3,0.0,0
mp-570561,Dy2MgSi2,0.0,0
mp-572998,Lu(IO3)3,3.5151,0
mp-631409,TlTcIr2,0.0,0
mp-1025722,Te2MoW2(SeS)2,0.0,0
mp-976969,MgPb5,0.0,0
mp-14793,Mg2SiPt,0.0,0
mp-696797,HSeNO4,0.18679999999999986,0
mp-570123,Cs3BiCl6,3.8516999999999997,0
mp-774043,MnV(P2O7)2,1.0275,0
mp-607080,NdCu9Sn4,0.0,0
mp-542879,Nd12Ni6Sn,0.0,0
mp-758453,Na2P2H4N2O5,4.6627,0
mp-779579,LiCu5(PO4)2,0.15640000000000054,0
mp-556654,SiO2,5.6055,0
mp-29139,NaAuSe2,0.9065999999999999,0
mp-862954,PmPd3,0.0,0
mp-15487,Ag6Ge2O7,0.009700000000000042,0
mp-759759,NaGa3P2(HO3)4,4.209099999999999,0
mp-28805,Tl2Pt5S6,0.9634999999999998,0
mp-862719,LiY2Os,0.0,0
mp-35236,Ga2NiO4,1.5034,0
mp-10911,Sc2Al3Ru,0.0,0
mp-13234,Lu5Si3B,0.0,0
mp-1041298,Ca(MoO2)2,0.9438000000000004,0
mp-865315,Lu2MgOs,0.0,0
mp-760795,Al10ZnO16,4.2410000000000005,0
mp-23576,CsSbClF3,3.6585,0
mp-753472,NbAlO4,2.8606,0
mp-559136,CaH8(NO5)2,3.5334,0
mp-777668,Li4Ti3Co3(SnO8)2,0.2580999999999998,0
mp-19495,NdCo(BO2)5,3.1128,0
mp-10899,AlVNi2,0.0,0
mp-863757,K2SbAu,1.0023000000000002,0
mp-1013559,Sr3As2,0.0,0
mp-20314,NpSnIr,0.0,0
mp-12262,CsBeF3,6.644299999999999,0
mp-721924,CaFe3Si2HO9,1.3944000000000005,0
mp-17281,Cu2PO4,0.0,0
mp-7030,LaSiNi,0.0,0
mp-1013796,Li3Ni2(GeO4)3,0.0,0
mp-24591,ZnH2SeO4,4.339899999999999,0
mp-23002,TiBrO,0.0,0
mp-22425,Sc2FeB2Ir5,0.0,0
mp-581967,Nb2O5,1.6713,0
mp-14495,Li6ZnO4,3.5116,0
mp-561473,CaTaAlO5,3.9264,0
mp-753802,Sc2Ti2O7,3.5775,0
mp-1018637,Tb(CuS)2,0.0,0
mp-767553,Li7Sb2S,0.0,0
mp-21703,Na3TiP3NO9,0.0,0
mp-7,S,2.4884,0
mp-776083,HfSnO3,2.3676000000000004,0
mp-698163,BaPHO4,5.3765,0
mp-28382,K4ZnO3,1.6945999999999999,0
mp-12771,Se,0.0,0
mp-1795,NbF3,0.0,0
mp-1008881,MgNiH,0.0,0
mp-762165,Li3(NiO2)5,0.0,0
mp-775338,V3Cu2Ni(PO4)6,0.0,0
mp-677370,UP2O7,0.0,0
mp-559210,Ca5Te3O14,1.6785,0
mp-5864,FePS3,0.0,0
mp-720658,Cs3Mg3In(PO3)12,4.665699999999999,0
mp-643542,CaGe2,0.0,0
mp-22817,TaTe4,0.0,0
mp-764671,LiMn7O7F,0.0,0
mp-643666,InH5NOF4,4.7597,0
mp-530738,Li10Mg7Cl24,4.438599999999999,0
mp-629015,BN,3.9688999999999997,0
mp-27688,K2TeI6,1.7434999999999998,0
mp-1045351,Ca(CrS2)2,0.0,0
mp-865013,EuAgAu2,0.0,0
mp-867590,LiCu2F5,0.4065,0
mp-30671,Ti2Ga,0.0,0
mp-558295,CS3N5Cl,2.2804,0
mp-3538,Hg3TeO6,1.1609,0
mp-28216,Lu6Ge4O17,3.7402,0
mp-21906,U20Si16C3,0.0,0
mp-21394,EuO,0.0,0
mp-631418,CuRe2Cl,0.0,0
mp-1049235,LaTaZnCrO6,1.8525,0
mp-1042656,W3O8,1.8159,0
mp-555975,NaH12C4S2BrO2,4.3026,0
mp-18399,Dy3Ni7B2,0.0,0
mp-674513,Dy3TaO7,2.0598000000000005,0
mp-1028544,TeMoWSe3,0.0,0
mp-626414,Al(HO)3,4.7632,0
mp-1043877,CaFe(GeO3)2,1.7226000000000004,0
mp-998173,RbPdCl3,0.0,0
mp-1689,HfRe2,0.0,0
mp-753124,Ba5Bi3O11,0.0,0
mp-971744,ZnCo3,0.0,0
mp-752927,LiAgF2,1.6817,0
mp-11338,Sc3Si3Ni2,0.0,0
mp-933,YAs,0.0,0
mp-540626,NiH8(IO5)2,3.6538,0
mp-675309,Mg3(AsO4)2,2.0396999999999994,0
mp-3503,Li6WN4,3.0573999999999995,0
mp-768145,DyHoO3,3.0511999999999997,0
mp-866027,YbRh2Pb,0.0,0
mp-3838,Li5ReN4,2.8473,0
mp-3143,Na2SO4,4.9638,0
mp-715493,V4O7,1.0034999999999998,0
mp-40066,CaLaMnFeO6,1.3633000000000006,0
mp-865516,YPaRu2,0.0,0
mp-973269,SbTeO3,0.0,0
mp-770296,La4Zn3O9,1.7738000000000005,0
mp-776325,Sc2H6(SeO4)3,4.3805,0
mp-761944,Li2FeCo3O8,0.20150000000000023,0
mp-569850,CeBr3,0.08930000000000016,0
mp-30351,MgAg3,0.0,0
mp-675470,YZr9O20,0.0,0
mp-569890,CrCl3,1.452,0
mp-1028621,Te4MoW3(SeS)2,0.0,0
mp-23925,TcH4NO4,3.2941,0
mp-570060,Ce6B2(CBr)3,0.0,0
mp-8059,SiO2,5.5887,0
mp-997099,PdAuO2,0.0,0
mp-555396,Mg2PClO4,5.0406,0
mp-754382,He,16.586399999999998,0
mp-22901,KI,3.24,0
mp-983327,KH4O2F,5.1821,0
mp-763927,V6O7F5,0.8938000000000001,0
mp-569005,MoCl4,0.0,0
mp-1019797,K5B(SO4)4,5.2949,0
mp-1029860,Ca5(RuN3)2,0.0,0
mp-28480,Sc2NCl2,0.0,0
mp-1046027,Ba2AlTlSn2O7,0.0,0
mp-1040903,CaLaCrCuO6,0.0,0
mp-755543,HoHO2,4.7573,0
mp-2932,Y2Si4Mo3,0.0,0
mp-1820,YbS,2.2234,0
mp-569505,TbRe2SiC,0.0,0
mp-770611,Li2CoH8(SO6)2,3.2881,0
mp-669688,U3Ga5,0.0,0
mp-866500,Ce3MnAlS7,0.0,0
mp-5572,Ho2Te5O13,3.0071,0
mp-1018113,YAu2,0.0,0
mp-4346,SrRuO3,0.0,0
mp-568598,Cu2HgI4,0.29800000000000004,0
mp-555247,Dy3ReO7,0.0,0
mp-16993,Er2SiO5,4.6496,0
mp-1003764,K3Mn4O8,0.4041999999999999,0
mp-1048468,Ba2YW3O7,0.0,0
mp-22499,EuSnF7,0.037800000000000056,0
mp-780518,Li5(NiO2)4,0.0,0
mp-680653,Yb8In3,0.0,0
mp-29226,Ca3Ga4O9,2.6392999999999995,0
mp-642331,Ca19In8N7,0.0,0
mp-1026362,Te4W3S2,0.0,0
mp-3165,RbMnSb,0.0,0
mp-767341,Li2ScPCO7,4.4398,0
mp-1034284,RbMg14BO15,1.1715,0
mp-867883,La3Pb,0.0,0
mp-776752,Li4Mn2Fe3Sb(PO4)6,1.1098999999999997,0
mp-5487,Sr3SiO5,3.7602999999999995,0
mp-2918,YCuO2,2.6470000000000002,0
mp-743949,Na3VSi4(HO6)2,2.2359000000000004,0
mp-6597,CsLiSO4,5.3584,0
mp-9010,RbAuS,1.9868,0
mp-5470,AgPS3,1.3119999999999998,0
mp-864886,Dy2NiIr,0.0,0
mp-3344,CeAlRh,0.0,0
mp-556631,KZrSnF7,4.0133,0
mp-720439,H4Ru3C9N2O9,2.5809,0
mp-1030750,Te2Mo3W(Se2S)2,0.0,0
mp-30828,Sr2Pb,0.008999999999999897,0
mp-770571,Ho2WO6,3.7755,0
mp-18388,Ga7Te10,0.8714,0
mp-1887,MoP2,0.0,0
mp-40374,Na6TiMn(SiO3)6,2.8038,0
mp-849392,Li9V2P4HO18,0.40470000000000006,0
mp-861590,Li2VF6,1.9564,0
mp-867827,DyCdAu2,0.0,0
mp-761656,Li4Co(PO4)2,2.8352,0
mp-672225,BaZn13,0.0,0
mp-639463,SiO2,5.3927000000000005,0
mp-607738,CeZnRh,0.0,0
mp-27753,In2(PS3)3,1.4261,0
mp-989628,YReN3,0.0,0
mp-569981,DyAl3,0.0,0
mp-6880,Sb2OsC6(OF2)6,4.6347000000000005,0
mp-972021,SrInO3,0.0,0
mp-1043062,MgFe4(CuO4)3,0.0,0
mp-769201,LiCuHCO4,0.3752000000000001,0
mp-557615,K3Np(H3O4)2,1.4329,0
mp-28204,CsH7O4,4.5889999999999995,0
mp-542817,UPt,0.0,0
mp-6996,SmB6,0.0,0
mp-771043,Y2Zr2O7,4.0648,0
mp-553955,V2O3,0.0,0
mp-770403,Li4V2(PO4)3,0.20920000000000005,0
mp-505213,Ba6Na16N,0.0,0
mp-867158,SmCd3,0.0,0
mp-555740,SiO2,5.5865,0
mp-769032,Li3NbS4,1.4084000000000003,0
mp-759607,LiSb4P7O24,3.3890000000000002,0
mp-552963,Pr2Ti2S2O5,0.8414999999999995,0
mp-1048180,Ba2AlCo3O8,0.0,0
mp-36921,Mn2CuO4,0.0,0
mp-22565,MnSiRh,0.0,0
mp-1001612,LuSi,0.0,0
mp-567945,SnTePd,0.0,0
mp-541361,K2RuNCl5O,1.7947,0
mp-2684,TbGa2,0.0,0
mp-639506,SiO2,5.6572,0
mp-11576,YbTl,0.0,0
mp-677445,Y4SiS3,0.0,0
mp-733612,RbH3(SO4)2,5.6712,0
mp-1046536,Ba2Tl2Cr3O10,0.0,0
mp-775971,Li5Sn5(PO4)6,0.25649999999999995,0
mp-780326,Ni(IO3)2,3.1389,0
mp-760781,Li2AgF4,0.5616999999999999,0
mp-761825,LiSb(TeO4)3,1.3945999999999996,0
mp-1020740,YBe2B5O11,5.3906,0
mp-861653,ThH3,0.0,0
mp-10101,CsAgC2,2.6144,0
mp-979294,SrAgO3,0.0,0
mp-772662,MnH4(SO5)2,0.6868,0
mp-18481,K6MnSe4,1.2348999999999999,0
mp-554416,Ta4FeS8,0.0,0
mp-761404,Co5CuO8,0.0,0
mp-12058,Er(PRu)2,0.0,0
mp-557606,SbAs3(Se2F3)2,1.8713000000000002,0
mp-672297,Cr(GaS2)2,0.0,0
mp-972511,Sm2AgSn,0.0,0
mp-627606,V3(H3O5)2,1.5017,0
mp-975872,K3Pr,0.0,0
mp-15957,Sc15C19,0.0,0
mp-757336,Hf2N2O,2.0236,0
mp-557628,AsS(IF3)2,1.1714,0
mp-2882,Y2Cu2O5,0.33110000000000017,0
mp-287,UF4,0.0,0
mp-9453,Sr2ZnCu2(SO)2,0.673,0
mp-555034,TeAs(IF2)3,1.8895,0
mp-570900,K4Sn9,1.1220999999999997,0
mp-11794,AlAgO2,0.8241,0
mp-640159,V2GaSn2,0.0,0
mp-758450,LiCu3(CO3)3,0.0,0
mp-989614,LaReN3,1.3972999999999995,0
mp-31369,Gd2B4O9,2.8237,0
mp-19240,ErCrO4,0.24580000000000002,0
mp-1041454,Ba(WO2)4,0.0,0
mp-21225,Pu(SiOs)2,0.0,0
mp-560613,Na2TeO4,1.8126000000000002,0
mp-559545,SeO2,3.4255,0
mp-973545,Ga3Te,0.0,0
mp-770469,Li5TaO5,3.9015000000000004,0
mp-696175,NaAsH4O5,3.815,0
mp-568018,RbSb2,0.2653000000000003,0
mp-19751,Ba2YbNbO6,0.0,0
mp-975642,Pr3Cu,0.0,0
mp-18549,Ba6Mg7F26,6.8161000000000005,0
mp-20628,NaIn,0.0,0
mp-690824,SrH6C4O7,2.8852,0
mp-1326,Nb3Sn,0.0,0
mp-20078,Pb2O3,1.0687000000000006,0
mp-643756,EuMgH4,0.17059999999999986,0
mp-30964,Dy2Zn17,0.0,0
mp-865868,LiZrRh2,0.0,0
mp-569496,Ce(SiAu2)2,0.0,0
mp-690703,BaH4(ClO)2,5.2435,0
mp-695962,LiAl(H2N)4,0.9087000000000001,0
mp-1047100,Sr2YAlV2O7,0.3193999999999999,0
mp-763191,LiMnF3,3.4080000000000004,0
mp-22344,Sn7Ru3,0.0,0
mp-686747,K2Nb6Ag(PO8)3,1.7979,0
mp-1017988,SrCaO2,3.3236,0
mp-1048490,MgMo3O8,0.8859999999999997,0
mp-849671,Li5Co2(SiO5)2,0.23460000000000014,0
mp-2757,CdAu,0.0,0
mp-27496,YUO4,0.0,0
mp-6576,YNi2B2C,0.0,0
mp-550469,TiZn(BiO3)2,0.8966999999999992,0
mp-39511,LiCaTa2O6F,3.6628999999999996,0
mp-1041149,MgSb3P3O13,2.2432,0
mp-605344,ZnH4SeO6,2.7471,0
mp-10366,Nb2Co3Si,0.0,0
mp-765603,Li4FeCo3O8,0.0815999999999999,0
mp-1023928,MoWSe4,1.2658,0
mp-981368,Zn2PdPt,0.0,0
mp-1251,VRh,0.0,0
mp-976080,Ge3B,0.0,0
mp-685023,Sr4N3,0.0,0
mp-1042222,Ba2AlAg3O8,0.0,0
mp-997180,VCuO2,0.0,0
mp-754698,NbO2,0.0,0
mp-1203,TiO,0.0,0
mp-30279,NpIO5,0.2121000000000004,0
mp-1025919,MoW2(SeS2)2,0.6116999999999999,0
mp-866283,CaHoRh2,0.0,0
mp-1025841,Mo2W(Se2S)2,0.6720000000000002,0
mp-1013713,Ba3BiP,0.0,0
mp-849511,VO2,0.5491000000000001,0
mp-1045996,Ba2TlSb2O7,0.0,0
mp-771890,LiSnAsCO7,1.9866,0
mp-976809,Ni3S,0.0,0
mp-625465,Tm(HO)3,3.8243,0
mp-755832,Na5GdO4,2.1312,0
mp-759099,Li3Sb(PO4)2,2.9066,0
mp-683943,Na2MoC3SeN3,1.6661000000000001,0
mp-675118,Y2Th8O19,2.8559,0
mp-1003854,KMnO2,1.3321999999999998,0
mp-4785,CeAl3Pd2,0.0,0
mp-567841,Be3P2,0.8891,0
mp-13435,CeMgNi4,0.0,0
mp-642216,MgSiO3,5.0524,0
mp-30305,Sr11Bi10,0.0,0
mp-562920,CsAl(SiO3)2,4.7668,0
mp-695960,NaZn(HO)3,3.2005,0
mp-29659,FeAgTe2,0.0,0
mp-5962,NaMgAs,0.9547999999999996,0
mp-22161,CaYb2O4,0.0,0
mp-6118,Ca3Cu3(PO4)4,0.6006,0
mp-767171,Li5(NbS2)7,0.0,0
mp-10636,SrSb2,0.0,0
mp-22762,CoN3,0.0,0
mp-567458,Ho(PRu)2,0.0,0
mp-569515,Hg3C2(N2Cl)2,1.7705000000000002,0
mp-557508,NaLaH2S2O9,4.6572000000000005,0
mp-1043649,Zn(BiO2)4,0.0,0
mp-676106,NdZr9O20,0.0,0
mp-580234,Fe3RhN,0.0,0
mp-504574,Li7IN2,0.0,0
mp-777678,LiFeF4,4.0954,0
mp-758855,LiZnBO3,3.3925,0
mp-14853,Ba3Er4O9,3.2722000000000007,0
mp-557420,KBaB5O9,4.8693,0
mp-2502,TmCd,0.0,0
mp-10108,NpP,0.0,0
mp-9687,K2PAu,0.9503999999999999,0
mp-775753,MnSn(PO4)2,1.5478,0
mp-33615,Ba(LaS2)2,2.0683999999999996,0
mp-1047112,Mg2TaWO6,2.6819000000000006,0
mp-22189,In6TeO12,1.0099,0
mp-561405,SnH8(CO)4,4.481,0
mp-557263,H6CN2O3,3.3317,0
mp-1044170,CrPO5,0.5163,0
mp-769589,LiV3CrO8,1.1787,0
mp-8481,LiPrGe,0.0,0
mp-1042100,WS2,0.0,0
mp-690687,Ag2H2IOF,1.456,0
mp-1048433,Ba2AlTlNi2O7,1.2311,0
mp-696993,Sn2H2SO5F2,3.7596,0
mp-779085,LiMn2F5,3.2036,0
mp-21658,Sm5Ga3,0.0,0
mp-557540,Rb2AgSbS4,1.4011000000000002,0
mp-30467,Bi4Rh,0.0,0
mp-626799,ReH3O5,3.886,0
mp-770544,LiAlCrO3,1.9811,0
mp-21182,Sc3P2,0.0,0
mp-22994,LiIO3,3.6546000000000003,0
mp-975405,RbAuO3,0.0,0
mp-788,CoTe,0.0,0
mp-14735,La2CuSnO6,0.0,0
mp-680679,K2Ho4Cu4S9,0.9172999999999996,0
mp-976843,Li2Mg,0.0,0
mp-973627,K3Sr,0.0,0
mp-542881,Ce3(CuSn)4,0.0,0
mp-674232,Ca2Sn2F3,0.0,0
mp-865124,NaSr2In,0.0,0
mp-1933,Cu3N,0.1899999999999995,0
mp-23438,BaBiO3,0.0,0
mp-755277,Tb3SbO7,2.7565000000000004,0
mp-542031,CrPbO4,1.8705,0
mp-30248,LiMoS2,1.0286999999999997,0
mp-1380,Zn3Ru,0.0,0
mp-3934,Cu3PS4,1.0202,0
mp-30745,Ir3W,0.0,0
mp-683905,K3Ta2AsSe11,1.1878000000000002,0
mp-643735,H8Pd(NCl3)2,1.1436,0
mp-1043537,ZnFe(Si2O5)2,3.3825000000000003,0
mp-3909,ZrAlCo2,0.0,0
mp-990441,H2O,0.0,0
mp-973174,NaAg3,0.0,0
mp-570520,ZrHg3(SeCl3)2,2.5681000000000003,0
mp-569200,Eu(Al2Fe)4,0.0,0
mp-773508,Li4Cu3Ni3(WO8)2,0.0,0
mp-767600,Li2MnF5,1.8449,0
mp-14734,CsCOF3,6.117,0
mp-985637,Li2Si4O7,3.0397,0
mp-31304,Zr(TeCl)6,1.0257999999999998,0
mp-29388,K2Ge2Se5,1.8029,0
mp-558239,Rb4U5O17,1.5170000000000001,0
mp-554529,Ba2TiO4,4.2635,0
mp-34232,K(AsRh)2,0.0,0
mp-558533,Nd3U(ClO2)3,1.4115000000000002,0
mp-656884,Ni9O10,0.0,0
mp-753776,Li4SbS4,0.0,0
mp-675953,Tl2SeO4,2.4471999999999996,0
mp-630820,Yb4Cu2Sn5,0.0,0
mp-561011,Li2Ta2(OF2)3,3.8335999999999997,0
mp-30606,DyInPd2,0.0,0
mp-767218,Li9(NbS2)14,0.0,0
mp-20918,ErTiSi,0.0,0
mp-16848,Tl3PS4,2.2857000000000003,0
mp-675691,Ni2RhS4,0.0,0
mp-1043166,ZnNi(GeO3)2,2.2656,0
mp-775967,Mn3NbCr2(PO4)6,0.0,0
mp-1047976,Ca(SbO2)4,1.4866000000000001,0
mp-861891,SeBr2,0.8221,0
mp-10314,Yb(ZnAs)2,0.4163000000000001,0
mp-984332,Rb2Sr2(CO3)3,4.6134,0
mp-36600,Ag3SBr,0.3943000000000001,0
mp-28503,Al10Si2O19,3.3810000000000002,0
mp-841,Li2O2,1.9742999999999997,0
mp-8033,PuF3,0.05349999999999966,0
mp-1234,LuAl2,0.0,0
mp-779366,LiCr(PO3)4,2.6060999999999996,0
mp-3952,BaY2O4,3.2493,0
mp-1016927,TiZnO3,0.0,0
mp-765595,Sn(PO3)3,0.0,0
mp-505825,Cs2PtC2,1.2698,0
mp-8886,Tc2As3,0.0,0
mp-15790,LiHoS2,1.9863000000000004,0
mp-768476,Li3VS4,1.3562,0
mp-555318,K2Zn(SiO3)2,3.9191000000000003,0
mp-973099,La2PdRu,0.0,0
mp-23033,Sr2NCl,1.9398000000000004,0
mp-20848,TmIn,0.0,0
mp-780978,Fe4O3F5,1.2248999999999999,0
mp-769584,NaMnPCO7,0.8646,0
mp-690684,Na2BH4ClO4,4.583799999999999,0
mp-989583,Rb2LiInCl6,2.8293,0
mp-505055,Na3B5Pt9,0.0,0
mp-631513,KBa2Re,0.0,0
mp-10769,BaSbAu,0.0,0
mp-919,HoTe,0.0,0
mp-753306,YUO4,0.0,0
mp-2579,HoPt2,0.0,0
mp-555267,CuHgSBr,0.5100000000000002,0
mp-19302,NaCaVO4,3.6886,0
mp-865828,YbPaRu2,0.0,0
mp-672264,WN18,1.7919,0
mp-19153,Lu2Mn2O7,1.0081000000000002,0
mp-622018,BAs5(Pb3O10)2,2.9515999999999996,0
mp-554032,Ti3O,0.0,0
mp-675450,BaBi4O7,2.3709,0
mp-541282,KZr2(AsO4)3,3.996,0
mp-540421,Li2MnP2O7,4.1701,0
mp-1018814,NdSbTe,0.0,0
mp-651358,Ba2ErCl7,4.9184,0
mp-684911,Sm2Te3,0.9168000000000003,0
mp-571216,Sr3(AlGe2)2,0.0,0
mp-541462,SrTa4O11,3.5237,0
mp-778065,Ga3NO3,1.0145,0
mp-539,Ga2S3,1.6980999999999997,0
mp-571474,Sm4Sn3,0.0,0
mp-769484,NaMnPCO7,0.9045,0