mp_id,formula,band_gap,fidelity
mp-762633,LiMn2NiO6,0.7591999999999999,0
mp-945184,YCuTe2,0.14469999999999938,0
mp-31250,BiBO3,3.0021999999999998,0
mp-369,TbAl3,0.0,0
mp-980001,YbPr3,0.0,0
mp-557108,Ba2Nb2TeO10,2.9816000000000003,0
mp-2079,Rb2P3,0.7643999999999997,0
mp-975656,Pr2NiIr,0.0,0
mp-1046666,MgCrPO5,1.5456000000000003,0
mp-755177,EuSeO3,0.010200000000000209,0
mp-771063,Li4Fe3Ni(PO4)4,3.0439999999999996,0
mp-5127,LiCuO,1.4376000000000002,0
mp-567451,MnH8C2NCl3,1.6327000000000003,0
mp-6855,K2NaAg3(CN)6,2.7260999999999997,0
mp-14387,Tb3Al5O12,4.473000000000001,0
mp-562815,Cs4CO4,1.8413000000000002,0
mp-553881,SiO2,3.5957,0
mp-549590,RbClO2,2.3707000000000003,0
mp-775154,LiMnF4,1.701,0
mp-756698,Gd(BiO2)4,0.0,0
mp-22895,CuI,1.1363000000000003,0
mp-865131,Hf2OsRh,0.0,0
mp-1027535,TeMoWSeS2,0.0,0
mp-2388,CdTe,0.0,0
mp-610992,HgC2(SN)2,2.2496,0
mp-34263,Mn2TcO4,0.0,0
mp-541057,Rb4Re6S13,1.3428,0
mp-7886,Cs2RbYF6,6.2119,0
mp-34381,H4IN,3.7607,0
mp-1280,ErTe,0.0,0
mp-1029659,Ca3FeN3,0.0,0
mp-680417,CeSb(SBr)2,0.0,0
mp-15170,Lu2Sn2O7,2.6064999999999996,0
mp-573373,PICl8,1.6867999999999999,0
mp-1019278,TbGeAu,0.0,0
mp-571582,TlHg3Sb2Br3,0.6482000000000001,0
mp-771993,LiZn2Fe9O16,1.3699,0
mp-23012,Bi2Pd3S2,0.0,0
mp-769535,V3(PO4)2,2.0661,0
mp-768963,SrLaCl5,3.3475,0
mp-685907,Cd4Bi2O7,0.5824000000000003,0
mp-864807,HfZnNi2,0.0,0
mp-645124,ZnWO4,2.1359,0
mp-12159,Na2PO3F,4.4907,0
mp-773017,LiTi2(PO4)3,2.4389,0
mp-780421,LaAlO3,4.270499999999999,0
mp-764747,FeOF,0.7544999999999997,0
mp-978964,Th3Mg,0.0,0
mp-550070,NbBr2O,0.9038000000000002,0
mp-734137,H9C2N7O6,3.3053,0
mp-30053,NaCN,5.0374,0
mp-999198,BMo,0.0,0
mp-975109,RbNa3,0.0,0
mp-13360,Y5Ge4,0.0,0
mp-1043054,TiZnNiP2O9,3.0155,0
mp-676515,YZr5O12,0.0,0
mp-867871,SmMgZn2,0.0,0
mp-18695,Fe15Co,0.0,0
mp-556567,BaH16C4S4(NO5)2,5.4192,0
mp-769122,Li4Sb2H6O3F10,4.648000000000001,0
mp-753619,BaSrO2,2.2522,0
mp-752428,Rb2PrO3,0.0,0
mp-7538,LaErO3,4.394499999999999,0
mp-29172,SeF4,4.1373999999999995,0
mp-546862,HgPb2(ClO)2,2.2432000000000003,0
mp-32081,LiMo2(PO4)3,0.8795000000000002,0
mp-977551,ErLuMg2,0.0,0
mp-779046,Li5Cu(PO4)2,2.0374000000000003,0
mp-13229,K3GdF6,4.5665000000000004,0
mp-28430,Na2TbO3,0.0,0
mp-10388,Nb5(PPd)4,0.0,0
mp-764448,V2OF5,1.6192,0
mp-18762,Na4CoO3,1.1125999999999998,0
mp-2172,AlAs,1.5036999999999998,0
mp-1045978,Zn2W9O13,0.0,0
mp-1287,KS,1.469,0
mp-541214,KS2O3,3.7767,0
mp-558083,BaLi2Ti6O14,2.8907999999999996,0
mp-972069,Ti3Ga,0.0,0
mp-697168,MgH6(NCl)2,4.7741,0
mp-864782,Ta2MoRu,0.0,0
mp-862554,LiEr2Ir,0.0,0
mp-542627,Fe2AgS3,0.0,0
mp-863427,Li3Si2BiO7,3.2388000000000003,0
mp-676349,Ga7(CuSe4)3,0.0,0
mp-755797,LiTi8O13,0.0,0
mp-764063,Li2CoO2F,0.6811999999999996,0
mp-21599,Eu2Si2O7,0.0,0
mp-624243,Fe6W6C,0.0,0
mp-971775,ZnPb3,0.0,0
mp-763481,Nb2CoO6,1.9055,0
mp-639306,CeBC,0.0,0
mp-740758,H2Os4Pt(CO)15,1.8919000000000001,0
mp-861960,CaInAu2,0.0,0
mp-772425,Li3V(SO4)3,0.0,0
mp-1495,ErIr2,0.0,0
mp-38901,Nd2SmS4,0.0,0
mp-510564,NdIn5Rh,0.0,0
mp-568873,GaSi2As(H3C)8,3.7194000000000003,0
mp-7800,LiSmO2,3.7006,0
mp-1001828,WN,0.0,0
mp-625475,H2SO4,6.138,0
mp-35421,Ca(LaS2)2,2.1455,0
mp-754825,NaTmO2,4.0764,0
mp-10694,ScF3,6.0729,0
mp-1021393,KMg6Mo,0.0,0
mp-1042795,ZnNiAs2O7,2.0656999999999996,0
mp-18979,TbFe3(BO3)4,2.3316,0
mp-22951,BaIF,4.0263,0
mp-638038,SiO2,0.0,0
mp-983551,CePmTl2,0.0,0
mp-8248,Rb2TeO3,3.5879,0
mp-540287,Li2Cr(PO4)2,0.0,0
mp-546292,YbClO,0.0,0
mp-683955,KTaPS6,1.7348999999999999,0
mp-569461,HgN6,2.6119,0
mp-28913,Ti6CCl14,0.9476999999999998,0
mp-653981,Zr6NiCl15,0.0,0
mp-636264,La(CuSn)2,0.0,0
mp-14001,Ba4SiAs4,0.9847000000000001,0
mp-9545,Tm2C3,0.0,0
mp-1028771,Te2W2SeS,0.0,0
mp-567929,Al13Os4,0.0,0
mp-4689,Al7FeCu2,0.0,0
mp-989538,Cs2InBiF6,2.2862,0
mp-568560,TlBr,2.2965,0
mp-684604,CuS2,0.0,0
mp-780282,Cd(BO2)2,2.7302,0
mp-866844,CaSnS3,0.7909999999999995,0
mp-3637,YOF,4.9285,0
mp-30683,ZrGa2,0.0,0
mp-777801,LiFeF4,3.8649,0
mp-555471,La3Ti5Al15O37,1.3978000000000002,0
mp-1029248,Te2Mo(WS2)3,0.0,0
mp-14435,K3GeSe3,1.8142,0
mp-12648,Ti2Be17,0.0,0
mp-973414,Lu2RuAu,0.0,0
mp-6479,KDy(PO3)4,5.2774,0
mp-983388,K3Hg,0.0,0
mp-29405,RbSnI3,2.0995999999999997,0
mp-11356,La3Co2Sn7,0.0,0
mp-755769,ZrO2,4.2234,0
mp-1823,Ti3Al,0.0,0
mp-531132,Ca3(PO4)2,4.9795,0
mp-669377,Ba2CaWN4,1.8491,0
mp-622198,Ti3(BiO3)4,1.6328000000000005,0
mp-1042360,CaBiSbO5,2.3346,0
mp-632685,NaH4CNO2,5.3232,0
mp-1044845,Ba2AlFe2F11,3.8605,0
mp-1045572,Li(NiO2)4,0.0,0
mp-5899,NdAlO3,4.353999999999999,0
mp-973981,LuBrO,4.3926,0
mp-1044729,PrV2O6,0.8094000000000001,0
mp-8892,LiInF4,4.0149,0
mp-559160,NaSmSe2O7,3.3052,0
mp-699266,K2MgH8(SO6)2,5.175999999999999,0
mp-1019557,BaS4O13,4.6756,0
mp-27160,WCl5,0.0,0
mp-560352,SrP2(XeF6)3,2.6253,0
mp-3296,Yb(GePd)2,0.0,0
mp-779165,Li2MnF5,1.4327,0
mp-1001834,HfN,0.0,0
mp-755083,BaYCl5,4.5011,0
mp-568376,Ta5Ga3,0.0,0
mp-669332,Mn3Bi,0.0,0
mp-20802,Eu(POs)2,0.0,0
mp-1042773,MgMnAs2O7,1.4546000000000001,0
mp-776024,CaZrO3,3.4707,0
mp-753772,Nd4O3F7,0.0,0
mp-680094,CdI2,2.3354,0
mp-568769,LaCo2,0.0,0
mp-767775,Li6MnCr3(PO4)6,1.036,0
mp-6716,Ba4Zr(RuO4)3,0.0,0
mp-4960,Li(PrGe3)2,0.0,0
mp-684013,Ba2In13Ir4,0.0,0
mp-1018791,LiY(CuP)2,0.0,0
mp-9024,LuSiAu,0.0,0
mp-14091,AlAgSe2,1.1360000000000001,0
mp-569129,TlCuPSe3,1.4855000000000005,0
mp-752404,Ba2Sb2O7,0.9781999999999997,0
mp-650228,KIn(MoO4)2,3.6425,0
mp-631519,TlBCl2,0.7963,0
mp-976892,Na(TeMo)3,0.0,0
mp-1018068,CrFe2Si,0.0,0
mp-554552,Zn3P2H2O9,3.3726000000000003,0
mp-768402,Ba3Y2Br12,3.5141,0
mp-570559,CdI2,2.3729000000000005,0
mp-13946,Rb2ZrF6,6.6418,0
mp-542934,CeMg2Cu9,0.0,0
mp-865866,LiZrPt2,0.0,0
mp-722862,CdH3NO5,3.2456,0
mp-619034,ZnSiO3,3.3916999999999997,0
mp-1041800,Zn(WO2)2,0.6846000000000001,0
mp-722977,Na2Si(H3O2)6,4.7453,0
mp-859128,Ba2CaI6,3.9865,0
mp-673171,Br,0.0,0
mp-8697,ScBO3,4.118,0
mp-767610,Mn2O3F,1.4567,0
mp-31311,Ga9Ir2,0.0,0
mp-1020657,NaSr(PO3)3,5.4018,0
mp-985829,HfS2,1.2322000000000002,0
mp-850901,Fe3(O2F)2,0.0039000000000000146,0
mp-752843,Li2CuF4,0.0,0
mp-603934,Fe2CuS3,0.0,0
mp-571297,AgN3,1.6377000000000002,0
mp-761486,LiFePO4,3.4886,0
mp-11020,GaAgO2,0.5832999999999999,0
mp-15077,Ag7AsS6,0.5009999999999999,0
mp-10390,Ta2O5,1.2267000000000001,0
mp-27722,Pd(S3N)2,1.2357,0
mp-643306,HPbCSNO,3.4588,0
mp-557861,Li2CaTa2O7,2.1401,0
mp-19100,Sr2CaMoO6,2.2527,0
mp-21801,Rb4PbO3,2.1723,0
mp-21827,In9(CuSe4)4,0.0,0
mp-24123,Rb(BH)6,5.530799999999999,0
mp-980062,YbErZn2,0.0,0
mp-11808,ScNi4Sn,0.0,0
mp-674940,La12Au3I13,0.0,0
mp-669566,ZnAu3,0.0,0
mp-17185,Ca4Si3Pd4,0.0,0
mp-762863,Fe3OF5,0.9538000000000002,0
mp-850068,NiS2,0.0,0
mp-982869,PmYAl2,0.0,0
mp-2102,PrGe,0.0,0
mp-865579,Li2ErIn,0.0,0
mp-570759,Tb4Bi3,0.0,0
mp-762344,Na8Nb5O14,0.2504999999999997,0
mp-759028,Li3Sb3(PO4)4,3.2319999999999998,0
mp-766995,LiLa3Ti2O9,2.6852,0
mp-559289,YTaO4,4.1106,0
mp-573069,Ba2CaTl2(CuO4)2,0.0,0
mp-1044256,TiZnCo(PO4)3,1.0791000000000002,0
mp-976402,NaZnAs(H2O3)2,3.0309,0
mp-31924,LiMnP2O7,1.2249999999999999,0
mp-21582,Nd4In5S13,0.0,0
mp-505104,Cu3BiSe2ClO8,0.0,0
mp-21363,TbFeSi,0.0,0
mp-962078,CaCdSi,0.0,0
mp-11417,TbGa,0.0,0
mp-7117,LiAlSe2,3.0233,0
mp-31096,Li3AlH6,3.5929,0
mp-5939,PrB2Ru3,0.0,0
mp-775436,Ti3Fe(PO4)6,0.0,0
mp-570354,CuBr,0.2019000000000002,0
mp-758587,Li2CuPO4,1.4144000000000005,0
mp-11011,RbNdTe4,0.16490000000000027,0
mp-771139,Cs4HfO4,2.7399000000000004,0
mp-570662,Ba4Ag3Ge20,0.0,0
mp-34806,NaYF4,7.3401,0
mp-776076,BaSiO3,4.6051,0
mp-9039,Sr4IrO6,0.0,0
mp-18809,Li2VGeO5,2.1485,0
mp-542884,Rb2BeH4(SO5)2,5.0725,0
mp-1026927,Mo3W(SeS)4,0.6504999999999996,0
mp-28833,Er7Ru2C11,0.0,0
mp-560964,K3Sm(AsS4)2,1.6795000000000002,0
mp-10993,ErCuAs2,0.0,0
mp-32780,AuCl,1.8679000000000001,0
mp-698647,LiVO2,0.08089999999999975,0
mp-768884,Li4B2O5,4.971,0
mp-21222,Sm2InGe2,0.0,0
mp-28371,K2Zn3O4,1.4082999999999999,0
mp-974455,Re3Ru,0.0,0
mp-861713,Mn5(OF3)2,0.9224999999999999,0
mp-754999,SrLaCl5,3.4172000000000002,0
mp-558967,K3Ta2S11,1.7459000000000002,0
mp-611448,C,4.399799999999999,0
mp-779885,Li2MnV(P2O7)2,0.28559999999999985,0
mp-979114,Th3U,0.0,0
mp-5637,SrZnO2,2.0793,0
mp-17382,Rb2Si3SnO9,3.7986,0
mp-2649,Zr5Sb3,0.0,0
mp-17363,BaHo2O4,3.2309,0
mp-972209,Ta2TcW,0.0,0
mp-571566,Li2ZnSi,0.0,0
mp-631449,LiTaBe,0.0,0
mp-1043213,MgV(GeO3)2,0.05750000000000011,0
mp-34477,LiSmS2,1.9213999999999998,0
mp-618964,Ba5Fe4S11,0.045700000000000074,0
mp-777528,Li3VF6,2.4757000000000002,0
mp-560802,Te7(OF5)6,2.3684000000000003,0
mp-30321,Y2P4O13,5.6411,0
mp-644221,H3CSClO,2.3467,0
mp-11054,RbSn,0.7438000000000002,0
mp-9519,AgCN,3.6446,0
mp-22850,RuCl3,0.0,0
mp-706622,PH6(NO)2,4.8465,0
mp-707470,Na2H4(SO4)3,5.4936,0
mp-14563,NaCa3IrO6,0.0,0
mp-8710,Ca2Pt3O8,1.1236000000000002,0
mp-1006390,Ce4Si3Rh4,0.0,0
mp-28658,Na2CdCl4,3.6351999999999998,0
mp-4690,K3TaO8,2.9894,0
mp-1019528,Ba2Mg(BO2)6,5.2119,0
mp-972539,Sm3Er,0.0,0
mp-12504,CeZnPt,0.0,0
mp-21810,Tm5(Ge5Rh2)2,0.0,0
mp-9527,NdMnSi2,0.0,0
mp-981365,V2ReRu,0.0,0
mp-30366,Ca3Au,0.0,0
mp-780878,LiMn(PO3)3,4.0608,0
mp-756422,Li4CuSi2O7,0.6356999999999997,0
mp-705085,LiCrP4O13,0.0,0
mp-861875,LiHf2Re,0.0,0
mp-19069,NiAgO2,0.0,0
mp-771295,LiMnBO3,2.9162,0
mp-976592,K3Ag,0.0,0
mp-631517,BaBeGa,0.0,0
mp-510006,K3Pu(PS4)2,0.06440000000000001,0
mp-691074,SrPrGaCuO5,0.24230000000000018,0
mp-2620,DySi,0.0,0
mp-10503,MgB4Os3,0.0,0
mp-556503,LiH3CO3,5.2442,0
mp-861973,PaCdAu2,0.0,0
mp-31204,Nd(SiAg)2,0.0,0
mp-675759,Tm10Ti6O27,1.7110999999999996,0
mp-31829,Fe3(PO4)4,0.0,0
mp-1045982,Mg2Fe9O13,0.5634000000000001,0
mp-556747,Ag3SNO3,1.0637000000000003,0
mp-863676,Pm2CuSn,0.0,0
mp-541158,Nb3SI7,0.5787,0
mp-1028487,W2SeS3,0.6294,0
mp-4433,Ce(SiIr)2,0.0,0
mp-1008807,RbCuO,0.0,0
mp-999118,TcB,0.0,0
mp-777917,Li4V5Cu3O16,0.0,0
mp-764789,LiMn2OF3,1.0545000000000002,0
mp-556544,LiAlSiO4,5.021,0
mp-865607,LuGaPd2,0.0,0
mp-755779,CaLaI5,2.1794000000000002,0
mp-675700,Cr2SbTe,0.0,0
mp-18125,Ag(AuF4)2,0.25859999999999994,0
mp-555556,SiO2,5.6138,0
mp-16645,SmMgPt,0.0,0
mp-24796,Rb3B12H12Br,4.7451,0
mp-27988,IF7,1.4652999999999998,0
mp-6669,Sr5P3O12F,5.2118,0
mp-10181,LiSiNi2,0.0,0
mp-753360,BiOF,3.0513999999999997,0
mp-769128,Dy2Sb2O7,1.3651,0
mp-971750,Tl3Ir,0.0,0
mp-554735,HgAs4(S2I)2,2.0015,0
mp-755139,Li5BiS4,1.7858000000000005,0
mp-558289,UAg2(SeO4)2,1.5089,0
mp-22609,Eu(CdP)2,0.0,0
mp-680374,KAlSiO4,4.6996,0
mp-21467,TiCo2Sn,0.0,0
mp-1027174,Te2MoW3(SeS2)2,0.0,0
mp-23985,LiH6BrO7,3.123,0
mp-3372,Rb2SO4,4.9943,0
mp-776758,Li2Fe3F8,2.9908,0
mp-705551,Fe15O16,1.1413000000000002,0
mp-676371,K5(Mo6S7)4,0.0,0
mp-983229,Pm2ZnRh,0.0,0
mp-9425,Sr2GaCuSO3,0.5552000000000001,0
mp-764945,LiCoSiO4,0.34760000000000013,0
mp-1007770,TlAs,0.0,0
mp-19359,NaFeO2,1.9918999999999998,0
mp-32715,B36O5,2.3416000000000006,0
mp-29671,TmI2,0.0,0
mp-530709,TlW3Br7,2.3106,0
mp-6058,K2NaScF6,6.757299999999999,0
mp-24118,H10SO8,5.508,0
mp-8843,SrSiPd,0.0,0
mp-1030,SbPt7,0.0,0
mp-865954,LiHo2Rh,0.0,0
mp-616615,Hf8MnTe6,0.0,0
mp-1020029,Li8PO3,0.0,0
mp-19754,TmCoC,0.0,0
mp-768120,Na2GaPCO7,3.7817,0
mp-9383,SrHfN2,0.31540000000000035,0
mp-675189,Ho7(CuTe4)3,0.4173,0
mp-782634,VFe5(PO4)6,1.3117000000000003,0
mp-22888,CaBr2,4.5304,0
mp-865733,CoTc3,0.0,0
mp-27647,AuCl3,1.345,0
mp-972984,HoErAl2,0.0,0
mp-11467,NdHg,0.0,0
mp-771118,Li4Co5Sb3O16,0.0,0
mp-998710,TlHgF3,1.8117,0
mp-3417,Ca(BO2)2,5.1925,0
mp-647606,Cu3SbS3,0.0,0
mp-30989,Sn(NO3)4,3.6378,0
mp-862687,CuH6(NCl)2,0.050999999999999934,0
mp-982378,Na3Cr,0.0,0
mp-570771,BaLi2(MgSi)2,0.0,0
mp-30178,Mg2Al5Cu6,0.0,0
mp-3507,Lu(SiPd)2,0.0,0
mp-774539,LiTi2(PO4)3,2.6049999999999995,0
mp-568411,Th2Ga,0.0,0
mp-15442,SmSi3Pt5,0.0,0
mp-763482,VPO5,2.2702999999999998,0
mp-30846,Sn3Pt2,0.0,0
mp-1018647,YbNiH3,0.0,0
mp-2570,PuFe2,0.0,0
mp-780193,LiCr(PO3)3,2.5296000000000003,0
mp-649676,CaSiO3,2.9075,0
mp-16356,TiNiGe,0.0,0
mp-28985,SbSeCl9,1.9981,0
mp-569120,NdPt3,0.0,0
mp-30213,Sb2BrF15,2.9699999999999998,0
mp-11457,HfRh,0.0,0
mp-865358,DySnRu2,0.0,0
mp-850329,Fe4O3F5,1.4527,0
mp-695026,NaYb3Ti2(SbO7)2,0.0,0
mp-10523,CeSiO4,1.4477999999999995,0
mp-623030,Na3CuSnSe4,0.6482999999999999,0
mp-34116,Tm2MgS4,2.3768000000000002,0
mp-542342,Dy5Ga3,0.0,0
mp-510646,TlPPbS4,2.074,0
mp-571209,Y3(B3Os4)2,0.0,0
mp-18229,CaTa2O6,3.4758,0
mp-775020,Mn2OF3,0.0,0
mp-2165,SmZn,0.0,0
mp-14168,K2GeF6,5.8902,0
mp-1047835,Ba2YV3O8,0.0,0
mp-1048331,MoP2O7,1.7563,0
mp-30267,CeGa4Os,0.0,0
mp-20980,NaNdTiO4,2.4465000000000003,0
mp-757224,Th4P6O23,4.1911,0
mp-770935,Na3CuPCO7,0.15949999999999998,0
mp-864982,DyBr3,3.0029,0
mp-541977,Cs2NaFe(CN)6,0.0,0
mp-976593,Nd3Si,0.0,0
mp-721253,Li10Si(PSe6)2,1.4633,0
mp-675831,Bi2Pb3F12,4.4481,0
mp-704210,Mo(PO4)2,1.7411999999999999,0
mp-1029329,Te2MoWSe2,0.0658000000000003,0
mp-570227,BeCl2,6.662800000000001,0
mp-1043196,ZnCo(GeO3)2,1.6158,0
mp-1047990,Ca(BiO2)4,0.5339999999999998,0
mp-570107,Zn3Fe2(CN)12,0.03639999999999999,0
mp-570177,TeH20C6(NCl3)2,3.1535,0
mp-27358,Se2O5,2.885,0
mp-558707,K2UAs2O9,2.4232,0
mp-996989,LiAgO2,0.0,0
mp-978095,Pr2CdPb,0.0,0
mp-779463,Dy2P4O13,5.4334,0
mp-21328,HfSn,0.0,0
mp-560639,SbS(BrF2)3,2.6467,0
mp-695398,Na3PH24SO15,0.7930000000000001,0
mp-707516,Mg16Si8HO32,0.0,0
mp-13308,HoGeAu,0.0,0
mp-776470,Hf3N4,1.0064000000000002,0
mp-650277,Pr6Si4Ni7,0.0,0
mp-771170,Li3Zn2Fe19O32,1.2897999999999996,0
mp-27600,Cd3(PO4)2,2.2063,0
mp-1029245,Te2MoWSe2,0.25800000000000045,0
mp-2334,DyCu,0.0,0
mp-763371,LiFe2(CO3)4,0.07040000000000002,0
mp-760980,FeCu5S4,0.0,0
mp-755010,KYbO2,0.0,0
mp-767624,Li9V5(SiO8)2,1.6405000000000003,0
mp-30703,Hf11Ga10,0.0,0
mp-26209,LiBiP2O7,4.150399999999999,0
mp-652494,Cs4Re6S13,1.3348999999999998,0
mp-975442,NdErIn2,0.0,0
mp-1027646,Mo3W(SeS3)2,0.5276000000000001,0
mp-774239,Li(CoO2)2,0.0,0
mp-7439,K3Cu3P2,1.2892000000000001,0
mp-1043513,CaFe(GeO3)2,1.6032000000000002,0
mp-505781,MnGePd2,0.0,0
mp-17980,K2MoS4,1.4127999999999998,0
mp-558403,P2Pb(XeF6)3,2.4778000000000002,0
mp-13955,SmSi2,0.0,0
mp-771083,Li6Fe2P(CO4)4,1.305,0
mp-763805,Na7(WO3)9,1.0205000000000002,0
mp-7814,Ta2CS2,0.0,0
mp-778150,Li9Nb3P8O29,0.1548999999999996,0
mp-18167,Ca3Cd2,0.0,0
mp-756135,Tb3NbO7,2.5846,0
mp-11534,Np,0.0,0
mp-10596,FeIr3,0.0,0
mp-542681,Na3In2Ag,0.0,0
mp-625487,Zn(HO)2,2.4257,0
mp-30389,HoPbAu,0.0,0
mp-557333,H14C5(SN)2,2.6468,0
mp-42190,K2NaTiOF5,3.9585999999999997,0
mp-568293,Ca3N2,1.2985999999999995,0
mp-1019596,CeZrO4,1.8185000000000002,0
mp-1014005,Mn2SiRh,0.0,0
mp-1029442,Mg2TaN3,3.1028000000000002,0
mp-28713,Na2Te2O5,2.9290000000000003,0
mp-19782,TbInCu,0.0,0
mp-15963,HfPRu,0.0,0
mp-1002222,TlN,0.0,0
mp-1016119,NaMnO2,1.3261999999999996,0
mp-6091,BaAl2(SiO4)2,4.819699999999999,0
mp-486,NiP2,0.5442,0
mp-11512,LiAl2Ir,0.0,0
mp-867882,SmCdAu2,0.0,0
mp-973809,NdBe13,0.0,0
mp-1019519,Ba2NaO,0.0,0
mp-770762,La7(FeO8)2,0.0,0
mp-1014257,Ti3ZnN,0.0,0
mp-568173,LaMgSi2,0.0,0
mp-672267,Ce(SnPt)2,0.0,0
mp-982780,K3Cd,0.0,0
mp-18315,Cs6Si2O7,3.1656000000000004,0
mp-21269,U2AlCo2,0.0,0
mp-2752,Nb3Au,0.0,0
mp-684817,K2LiTa6(PO8)3,3.0471,0
mp-568932,Cd2Os(CN)6,2.5374,0
mp-675298,K2NbO6,0.0,0
mp-21835,Cs2In2Sb3,0.7882999999999996,0
mp-865141,Lu4Ni13C4,0.0,0
mp-756198,Li14Mn2S9,1.7707,0
mp-558759,Cd4Te6Cl6O13,3.3116999999999996,0
mp-774702,Li3BiO4,1.3994999999999997,0
mp-27346,Al2Hg3Cl8,2.4917,0
mp-2390,YbP,0.0,0
mp-626864,U(HO2)2,1.6722999999999995,0
mp-680553,Sm3Sn13Rh4,0.0,0
mp-680525,La7P12Pd17,0.0,0
mp-685126,Cu39S20,0.0,0
mp-1048138,Ba2YW3O8,0.0,0
mp-22646,InPd2,0.0,0
mp-1785,PrSb,0.0,0
mp-530449,Ca3(AsO4)2,3.6298000000000004,0
mp-1047839,ZnCo3P3O13,0.3877999999999999,0
mp-685099,IrSe3,0.0,0
mp-40206,Ca2Nd2Nb3FeO14,2.2485,0
mp-23784,NaB(H4O)2,5.8288,0
mp-560445,SrEr2O4,3.7705,0
mp-638150,KPPbS4,2.3165999999999998,0
mp-972899,Sc2GaIr,0.0,0
mp-631330,LiTaW2,0.0,0
mp-560054,LuSBr,2.7179,0
mp-568477,Rb2SbBr6,0.0,0
mp-631381,TeRuSe,0.0,0
mp-2547,YbPd,0.0,0
mp-977583,LiNpIr2,0.0,0
mp-560450,Sb2SNF11,3.5649,0
mp-945077,YTe3,0.0,0
mp-15694,PaAs,0.0,0
mp-866140,TiGaPd2,0.0,0
mp-20021,DySn2,0.0,0
mp-23173,HgI2,2.3184,0
mp-4495,KLiTe,2.4134,0
mp-631466,KSc2Co,0.0,0
mp-18216,BaCa2(SiO3)3,4.5745000000000005,0
mp-903,ZrCr2,0.0,0
mp-8768,K2CoSe2,0.0,0
mp-1029252,Te3MoWSe,0.3442999999999996,0
mp-569296,Gd(NiSb)2,0.0,0
mp-755121,TiBi2O5,1.7454,0
mp-715,ZrIr2,0.0,0
mp-1025575,Mo(WSe3)2,1.0142999999999998,0
mp-31458,TiSbRu,0.0,0
mp-752709,InBP2H5NO9,4.0683,0
mp-675597,Na3NO2,1.1272,0
mp-775994,Ti3CrCu2(PO4)6,0.0,0
mp-7303,ErCd3,0.0,0
mp-556635,CuBi2(SeO3)4,0.5945,0
mp-699352,LiFe2(PO4)3,0.0,0
mp-1042310,AlRe(WO4)2,0.0,0
mp-675648,Pr9Be4O20,0.030899999999999928,0
mp-1019716,CsLi4(BO2)5,4.4885,0
mp-20061,GePt2,0.0,0
mp-30847,TiSnPt,0.7908,0
mp-760629,LiBiP2O7,3.5500999999999996,0
mp-1047405,Mg2TeWO6,1.6119999999999997,0
mp-23800,KHSO4,5.4306,0
mp-1007786,HfIr,0.0,0
mp-3991,UMoC2,0.0,0
mp-779090,VO2F,1.1421,0
mp-722243,Na2CuH4(C2O5)2,0.7893000000000001,0
mp-1018638,Tb3AlN,0.0,0
mp-631635,TaCoSn2,0.0,0
mp-720987,Na3CaSc3Zn(SiO3)8,3.7453,0
mp-694856,V2Bi8O17,0.7101000000000006,0
mp-638705,FeTeS2N2Cl5,1.284,0
mp-572707,SeS4N3Cl5,2.336,0
mp-755525,TmTiO3,0.0,0
mp-1045558,MgMn2O4,0.07089999999999996,0
mp-675376,HoAgSe2,0.7128000000000001,0
mp-779712,Ti17(NO4)6,0.0,0
mp-555311,ZnS,2.0318000000000005,0
mp-29152,Zr2CoP,0.0,0
mp-35493,Zn2SnO4,0.8250999999999995,0
mp-14968,Dy2Ru2O7,0.0,0
mp-758829,Nb2OF8,4.2124,0
mp-978256,Mg2TlPb,0.0,0
mp-707981,Y4H9NO13,3.3405,0
mp-10674,Sm3AlN,0.0,0
mp-865939,LiMg2,0.0,0
mp-558694,CsFeF3,0.0,0
mp-1028416,TeMoWSe2S,0.0,0
mp-28224,Hg2AsCl2,1.3038999999999998,0
mp-5556,U(SiRh)2,0.0,0
mp-567513,Ho(SiIr)2,0.0,0
mp-553939,CaCO3,4.7004,0
mp-990076,P2O5,0.0,0
mp-698396,CuH4C2NCl3O,0.11909999999999998,0
mp-779311,LiFeBO3,2.9857,0
mp-567368,Zr3(VGa2)2,0.0,0
mp-557560,LiH4SNO4,5.2109,0
mp-971740,Sr3As,0.0,0
mp-6030,Be3Al2(SiO3)6,5.319500000000001,0
mp-12855,Cu2HgGeSe4,0.0,0
mp-988996,FeSbAs,0.02030000000000065,0
mp-977187,La2MgTl,0.0,0
mp-22017,LaIn2Ir,0.0,0
mp-772170,CaLaI5,2.1489000000000003,0
mp-1030454,Te4MoW3Se4,0.08549999999999969,0
mp-530800,Er2TiO5,2.2043,0
mp-850280,Na8SnO6,1.7356,0
mp-29792,CaNb2O4,1.2833000000000006,0
mp-8066,Cu3As,0.0,0
mp-505562,CrCuO2,1.4692999999999996,0
mp-23582,KLi6BiO6,1.4216000000000002,0
mp-30963,Er2Zn17,0.0,0
mp-865536,YbZrRh2,0.0,0
mp-1046747,MgVSF5,0.29479999999999995,0
mp-866025,CsCr5Te8,0.0,0
mp-542897,BaIrO3,0.0,0
mp-774719,Ba4Nb3O12,0.0,0
mp-972395,TmBeO3,0.0,0
mp-31178,DyAl3,0.0,0
mp-568590,SbCNCl5,1.9434999999999998,0
mp-998974,TiFeCoAs,0.0,0
mp-766929,Sn4P2O9,2.2198,0
mp-20987,YZnSn,0.0,0
mp-1042355,Cr(SiO3)2,1.6727999999999998,0
mp-770842,Li4Mn2Co3Sb3O16,0.21760000000000002,0
mp-19905,Co2Si,0.0,0
mp-781684,LiNiH12(SO7)2,0.47409999999999997,0
mp-758890,LiAg2F4,0.0,0
mp-752948,LiAg2F4,0.0,0
mp-990091,Ag2WS4,0.8692999999999997,0
mp-22084,Zr(MnGe)6,0.0,0
mp-7258,K4SnO4,2.3374,0
mp-19028,Na3Fe(PO4)2,2.4126000000000003,0
mp-866304,Ba2GdB2ClO6,3.1318,0
mp-510341,Cs3Ge4Au,0.9304000000000001,0
mp-21525,RbPb,0.40500000000000025,0
mp-11654,BAsO4,3.8556,0
mp-558954,Na2Sr2Al2PO4F9,5.8328,0
mp-850944,Li21(Co4O9)2,0.9552,0
mp-4169,USiO4,0.0,0
mp-1025692,Te2MoW2(SeS)2,0.0,0
mp-436,SmRh,0.0,0
mp-27809,Ba(GeP)2,0.5134000000000003,0
mp-554289,AsS3(NF3)2,0.5929,0
mp-1008626,VTe2,0.0,0
mp-12626,K2SrBe2F8,7.162599999999999,0
mp-764977,Li2FeOF3,2.4855,0
mp-976955,Li2RuF6,0.0398,0
mp-706277,Li10Si(PSe6)2,1.3276999999999999,0
mp-972985,KPdO3,0.0,0
mp-19438,LiMnO4,1.5169,0
mp-20478,LuTiSi,0.0,0
mp-974364,RuAu3,0.0,0
mp-705569,NiB18(H11C2)2,1.5217,0
mp-976286,HoErRh2,0.0,0
mp-1013554,Sr3PN,0.5116999999999998,0
mp-5407,TiAlCo2,0.0,0
mp-862445,TaAlOs2,0.0,0
mp-19966,GdTl,0.0,0
mp-763752,Li3Mn2(NiO4)2,0.0,0
mp-22275,YSnPt,0.0,0
mp-772820,SrLu2O4,3.8741000000000003,0
mp-9565,Ca(MgSb)2,0.7931000000000008,0
mp-754165,ScGaO3,2.6997,0
mp-676143,Ce5AgSe8,0.0,0
mp-697076,Ti3Zn3C,0.0,0
mp-770530,Li14Mn2O9,2.5938999999999997,0
mp-565354,LaP5Cl18O17,3.4539999999999997,0
mp-862890,AcAg2Sn,0.0,0
mp-1113,BW2,0.0,0
mp-684106,LiSbP2O7,3.9865,0
mp-730446,AlH10SO9F,5.459199999999999,0
mp-865662,Yb2AgPb,0.0,0
mp-505302,U5Ge4,0.0,0
mp-772787,Gd2P4O13,3.2969999999999997,0
mp-8655,SmSiRu,0.0,0
mp-631353,MnRePt,0.0,0
mp-756317,Al2HgO4,1.3460999999999999,0
mp-557962,SrLiBS3,2.3921999999999994,0
mp-17334,Sc2Cr4Si5,0.0,0
mp-19364,BaDy2CoO5,1.8435999999999995,0
mp-7849,AlAsO4,4.2482,0