mp_id,formula,band_gap,fidelity
mp-767240,CsPH4(NO)2,4.5992,0
mp-9905,Ba2Si,0.000500000000000167,0
mp-1027437,Te2Mo3W(Se2S)2,0.0,0
mp-1023936,WSe2,1.5384,0
mp-8431,Ca(BRh)2,0.0,0
mp-759333,Na7Ti11O24,0.0,0
mp-610491,BiSeCl,1.8404000000000003,0
mp-5537,NbAgO3,1.7878999999999998,0
mp-759786,Na2Ti7O15,2.8839000000000006,0
mp-556596,AlP3(HO2)6,5.4786,0
mp-1013533,Ba3PN,0.0,0
mp-859118,LiAgF6,0.8249999999999997,0
mp-1045600,Ti4Al(CuO4)3,0.0,0
mp-6319,Na2MgAlF7,6.656,0
mp-581639,Mg2BN2Cl,3.6701,0
mp-1028668,Te2MoW3(SeS2)2,0.09150000000000036,0
mp-27293,Tl4HgBr6,1.8287000000000002,0
mp-2697,SrO2,2.8495000000000004,0
mp-1048244,CaFeO2,2.3615999999999997,0
mp-753699,Bi4O5F2,3.0917999999999997,0
mp-24058,AgBH2OF4,3.044,0
mp-625657,TeHO3,2.1801,0
mp-28329,TlI3,1.6813,0
mp-556424,RbVF3,2.4491,0
mp-19110,BaCrP2O7,3.0648000000000004,0
mp-767717,NaPrPCO7,0.1574000000000001,0
mp-1019548,BaGe(S2O7)3,3.9450000000000003,0
mp-10114,ScB4Ir3,0.0,0
mp-585265,LiMo2(PO4)3,1.3906000000000003,0
mp-754712,NClO3,2.9429999999999996,0
mp-1016835,CaRuO3,0.0,0
mp-556600,CsS2N3O4,2.6646,0
mp-977325,Np3Be,0.0,0
mp-752755,NaSbO3,1.7037000000000004,0
mp-647347,Np2InPt2,0.0,0
mp-996980,AgAuO2,0.0,0
mp-12862,LuTaO4,4.0476,0
mp-768156,Li7(SbS)2,0.0,0
mp-677203,H24C8Se(NO2)2,4.0885,0
mp-574273,Ce2Co5B2,0.0,0
mp-8651,Gd(AlSi)2,0.0,0
mp-5955,NaSbF6,4.8892,0
mp-995183,CO,0.0,0
mp-13089,Cu2SnTe3,0.0,0
mp-34508,Sr(SmS2)2,2.1281,0
mp-775311,LiCuSbO4,0.0,0
mp-318,SrIr2,0.0,0
mp-38322,Mg(IO3)2,3.4840000000000004,0
mp-771179,Li4Nb5Cr3O16,0.04290000000000038,0
mp-976138,PrDy3,0.0,0
mp-608402,Zr2InPd2,0.0,0
mp-19818,Dy3PbC,0.0,0
mp-680171,KEu2CuS6,0.0,0
mp-20097,Pt3PbC,0.0,0
mp-4360,NaCdF3,3.513,0
mp-570084,Hg3AsSe4I,1.2214,0
mp-1008557,AlBN2,3.0482999999999993,0
mp-570700,Hf3Tl2(CuSe4)2,0.5087000000000002,0
mp-767208,Sb17S27,0.0,0
mp-998778,RbSnBr3,2.2976,0
mp-754120,Dy2Nb2O7,0.0,0
mp-6615,C2Se(SN)2,2.2407,0
mp-570765,YMg4Cu,0.0,0
mp-16548,ZrTiF6,0.0,0
mp-774528,Li11Ti24O48,0.0,0
mp-1043626,Ca2Nb2SbO8,0.0,0
mp-1018636,SnPd3C,0.0,0
mp-771250,Na3SiSnCO7,0.0,0
mp-541738,Cs3Cr2I9,1.0526000000000002,0
mp-18713,Ba2Li(CuO2)3,0.0,0
mp-14591,LiSbS2,1.1843000000000004,0
mp-545825,NaIO3,0.0,0
mp-21520,NaCeP2O7,0.0,0
mp-12221,CaTeO4,2.2537,0
mp-973143,ScZn3,0.0,0
mp-13579,ErGePt,0.0,0
mp-865531,TiMn2Al,0.0,0
mp-3412,Eu(CuSi)2,0.0,0
mp-16691,SrLi2Ti6O14,2.8389000000000006,0
mp-582,CeIr2,0.0,0
mp-11252,MnAu2,0.0,0
mp-862927,LiPmHg2,0.0,0
mp-862936,PmMgAg2,0.0,0
mp-28965,AgBi2F12,0.39680000000000026,0
mp-30424,Zn3Au,0.0,0
mp-680168,K2Re3C2Se5N2,1.2751000000000001,0
mp-3925,Co2CuS4,0.0,0
mp-510084,Ho2Ti3Si4,0.0,0
mp-554187,SnH21C7S4N(O3F)2,4.7629,0
mp-10231,LiMnSe2,0.0,0
mp-971864,U2Ga2O5,0.0,0
mp-770369,LiNiCSO7,0.33140000000000003,0
mp-571096,FeCl2,0.6108000000000002,0
mp-23279,KBi2,0.0,0
mp-770722,Mg3Mn5(BO4)4,0.8380999999999998,0
mp-21229,Eu(SiAu)2,0.0,0
mp-861867,AcI3,2.5886,0
mp-557406,NaB3O5,5.2573,0
mp-771062,Li6MnFe3(PO4)6,1.1778000000000002,0
mp-29958,Hg7(PO5)2,1.4983000000000002,0
mp-971632,GaP,0.21080000000000076,0
mp-26658,BiP2O7,0.0,0
mp-5926,KCaF3,6.6469000000000005,0
mp-754833,Hf2N2O,1.0665999999999993,0
mp-16220,Si,0.5334000000000003,0
mp-770608,Li3Mn3O8,0.0,0
mp-634802,Np(OF)2,0.0,0
mp-19054,BaMnCO3F2,4.0865,0
mp-772891,BaLaBr5,2.8966,0
mp-4847,Y4Al23Ni6,0.0,0
mp-23174,ReCl3,0.9624999999999999,0
mp-14526,Na4Hf2(GeO4)3,3.6565000000000003,0
mp-756334,K2Sr2O3,1.9508,0
mp-770771,SrSc2O4,3.4364,0
mp-11733,Lu3InN,0.0,0
mp-2981,CaTeO3,2.9347000000000003,0
mp-16762,PrB3,0.0,0
mp-604313,Li,0.0,0
mp-4494,NaYbS2,0.0,0
mp-707945,BaZn2H16O11,0.1956,0
mp-5663,BaCeO3,2.3080000000000003,0
mp-1012551,BaBrCl,4.4843,0
mp-8832,Tb(CrSi)2,0.0,0
mp-1018734,IrN,0.0,0
mp-675438,Li2UBr6,0.15039999999999987,0
mp-772482,Mn3Sn3(TeO8)2,0.0,0
mp-753316,Li2AgF5,0.893,0
mp-699243,La5MgRe3O16,0.09419999999999984,0
mp-21008,Ni3Ge,0.0,0
mp-23157,Bi,0.0,0
mp-606604,CsLi2F3,7.0403,0
mp-4363,Ca3Sn13Rh4,0.0,0
mp-30185,BaSi23,0.0,0
mp-5711,Pr7Al7Co6,0.0,0
mp-559740,SiO2,5.7101,0
mp-28586,AgXeF9,1.5421999999999998,0
mp-1043305,ZnNi(GeO3)2,2.1605999999999996,0
mp-768482,Bi2(SO4)3,3.8124000000000002,0
mp-758743,Li2CuSiO4,0.0,0
mp-4176,La(SiPt)2,0.0,0
mp-973067,ScGa2Ru,0.0,0
mp-2030,RuS2,0.6675999999999993,0
mp-554009,Er4Si3O11F2,5.0561,0
mp-643727,HPbBrO,3.1006,0
mp-1046172,Ca2Ta2MnO8,3.3712999999999997,0
mp-12107,TiPt3,0.0,0
mp-1044121,LaMgFeSnO6,2.1909,0
mp-758708,Li2CuSiO4,0.0,0
mp-1041341,BaSbF7,2.6294,0
mp-703299,K2H2RhCl5O,0.5501,0
mp-1020031,LiCaAlN2,2.7797,0
mp-38931,Tb2SmS4,0.0,0
mp-680944,Nb2O5,1.6138,0
mp-11792,PrCuSe2,0.7445999999999993,0
mp-667372,Ba8Zr3(SbO6)4,2.9436,0
mp-569344,Zr(CoSi)2,0.0,0
mp-26477,LiCuPO4,0.15979999999999994,0
mp-21505,YAgPb,0.0,0
mp-570902,Pr6RuBr10,0.21259999999999968,0
mp-760758,Bi3O4F,2.1904999999999997,0
mp-29187,Co(SiP)3,1.2515999999999998,0
mp-983426,PmDyCu2,0.0,0
mp-676270,Cr2AsSe,0.0,0
mp-862669,BeFe2Si,0.0,0
mp-7446,Rb2S3,1.3218,0
mp-18857,Sr2FeMoO6,0.0,0
mp-675025,SbRhO4,0.0,0
mp-674357,SmAlF5,0.5566999999999993,0
mp-559423,AgH8C5S2O2F3,3.2201,0
mp-771061,MnFeBO4,0.0,0
mp-755115,CuReO4,0.43679999999999986,0
mp-1013733,Ca3BiSb,0.0,0
mp-3032,RbBF4,7.737,0
mp-735523,Fe3PH6PbSO14,1.3477,0
mp-24488,NaZn2H3(SO4)2,4.3334,0
mp-557581,ZnH2(CO2)2,4.5082,0
mp-582819,Pu,0.0,0
mp-21885,Ca2InPt2,0.0,0
mp-17730,K2SnO3,2.1206000000000005,0
mp-766301,Ba2CaI6,3.4988,0
mp-627314,Si2H2O3,1.7578,0
mp-1046441,SrCaMn(PO4)2,3.9126999999999996,0
mp-971928,Zn3Ge,0.0,0
mp-1017000,MgZrO3,0.6316999999999999,0
mp-8355,KAlSiO4,4.5002,0
mp-776659,LiVPO4F,1.6608,0
mp-13774,NaNdSiO4,4.4774,0
mp-17765,Ta2ZnO6,3.0662000000000003,0
mp-11151,NaPrTe2,1.0596999999999999,0
mp-554055,HoS,0.0,0
mp-581934,Pu3Ge,0.0,0
mp-5588,BaSiF6,7.4159,0
mp-17985,Ca5(GaSb3)2,0.0,0
mp-1041661,Zn2CrWO6,1.5237000000000003,0
mp-782644,LiMn3(BO3)3,0.41900000000000004,0
mp-684678,H2O,0.05420000000000025,0
mp-568474,Ba(CuP2)2,0.0,0
mp-571554,PrAlSi2,0.0,0
mp-569957,Cd3N2,0.0,0
mp-22585,GeRh2,0.0,0
mp-5273,KPrTe2,1.2799999999999998,0
mp-768615,Sr3La2Cl12,3.8064,0
mp-706328,Ba3DyUFeO9,1.4773,0
mp-15178,Lu4C7,0.0,0
mp-558625,SrZr(PO4)2,4.1079,0
mp-721702,Zn2AsHO5,1.9575,0
mp-769069,Na2Li4Ti3Al(PO4)6,0.0,0
mp-11225,TbAl,0.0,0
mp-754217,SmIO,3.5519,0
mp-974417,Re3Sb,0.0,0
mp-752515,YTa3O9,3.2338,0
mp-27638,NiI2,0.0,0
mp-18849,Fe2P2O7,3.7687,0
mp-756372,Rb2MgO2,2.2798999999999996,0
mp-779820,Li3Fe4(Si3O10)2,0.05409999999999998,0
mp-29579,Sc7NCl12,0.0042999999999997485,0
mp-27893,B5H9N,3.7727,0
mp-23011,RbClO3,5.3151,0
mp-32891,Y2S3,1.9018999999999995,0
mp-21190,PbSO3,3.2196,0
mp-755666,Yb2TeO2,0.0,0
mp-760419,Li2BiF5,4.0571,0
mp-21538,Ba5Ge3,0.0,0
mp-6711,Na3Li3Al2F12,7.0872,0
mp-9911,K3SbS4,2.1341,0
mp-10187,TeIr,0.0,0
mp-10333,Pr(ZnP)3,0.0389999999999997,0
mp-634431,KHCO3,4.9715,0
mp-3667,P2S2O3,3.974,0
mp-568,TiSb2,0.0,0
mp-2237,TeO2,0.0,0
mp-768915,Na3AuO3,1.8236999999999999,0
mp-3031,BaSi2O5,4.7566,0
mp-629690,Bi2(PbS2)3,0.5274999999999999,0
mp-1025853,Te2Mo3(SeS)2,0.0,0
mp-510403,GdSb,0.0,0
mp-680115,CdI2,2.3587,0
mp-10626,Yb(SiRh)2,0.0,0
mp-1048076,Mg2TiNb2O8,0.0,0
mp-11892,NaNd2RuO6,0.0,0
mp-631413,Re2PCl,0.0,0
mp-866521,Ca2SnS4,1.6020999999999996,0
mp-605684,Mg3H13C9NO13,4.0947,0
mp-772793,Dy2Ge2O7,3.7422,0
mp-1211,ScCd,0.0,0
mp-763339,Fe7(SiO6)2,1.1102000000000003,0
mp-756142,La2Th5O13,2.4128000000000007,0
mp-5338,ZnSeO3,3.9227,0
mp-14698,Ho2Fe14B,0.0,0
mp-8613,MnPS3,0.15249999999999986,0
mp-769519,Li21(FeO4)4,1.4195,0
mp-13206,PrZnPO,1.1665,0
mp-674521,Dy2TiO5,2.8711999999999995,0
mp-39260,Na2CaPO4F,4.1045,0
mp-1041219,CaBi3P3O13,2.869,0
mp-570076,Tl2CdSnTe4,0.3681000000000001,0
mp-571240,KLa5(CCl5)2,1.9383,0
mp-22467,Sn(PbO2)2,2.0634000000000006,0
mp-11347,TbF3,7.7511,0
mp-21085,PuPd3,0.0,0
mp-561098,LiUPO6,2.1007000000000002,0
mp-24546,MgH2(SeO4)2,3.2742,0
mp-768335,Li3(FeS2)2,0.0,0
mp-628185,K3NaSn3Se8,1.4211000000000003,0
mp-557735,BaCuTe2O7,0.0,0
mp-29312,InI2,1.7863000000000002,0
mp-776074,CaGeO3,3.2925,0
mp-771160,Rb2MgH4,3.3651,0
mp-756830,MgCu2(SiO3)4,0.8613,0
mp-863750,AgAu3,0.0,0
mp-12597,TaP,0.0,0
mp-14941,Al2Pb3F12,5.2252,0
mp-12789,Yb(Al5Fe)2,0.0,0
mp-865215,TmHfRu2,0.0,0
mp-974856,Rb3Re,0.0,0
mp-983539,BeAu3,0.0,0
mp-35527,Zr7(NO2)4,2.6081999999999996,0
mp-30974,CsWCl6,0.0,0
mp-636773,Ce3(AlI)2,0.0,0
mp-29652,TaSe3,0.0,0
mp-753793,Ba2YF7,6.8971,0
mp-863292,Na3VP2O9,0.43489999999999984,0
mp-571085,Ga2BiSe4,1.8901000000000001,0
mp-979942,Yb3V,0.0,0
mp-675004,Ge6Bi7O22,0.6659999999999999,0
mp-778819,LiMnF3,3.2543,0
mp-21183,Ba(InTe2)2,0.9628000000000001,0
mp-12117,PrS2,0.0,0
mp-5504,BaCO3,4.3837,0
mp-762352,P(H3C)3,4.1735999999999995,0
mp-17916,Y3CuGeSe7,1.1226000000000003,0
mp-21587,Mg6Ni16As7,0.0,0
mp-978528,SmMg2Sc,0.0,0
mp-4038,Sm3S3N,1.3056,0
mp-772216,LiNb8O14,0.0,0
mp-601211,SbH12C5N3Cl4,1.3255,0
mp-863869,Li3Mn3FeO8,0.18990000000000018,0
mp-11927,Pr2AlCo2,0.0,0
mp-989618,Cs2RbGaF6,5.939299999999999,0
mp-29922,Sb5PO10,3.1373,0
mp-4798,Sc(AlC)3,0.028900000000000148,0
mp-755576,Zr2N2O,0.0,0
mp-11401,ScGa2Ni,0.0,0
mp-30244,Mg2H2O3,3.5667,0
mp-2956,Co2(GeS)3,0.5346000000000002,0
mp-774520,TiAlO3,0.0,0
mp-29368,Th2Ta2O9,3.4214999999999995,0
mp-775435,Li3MnV(PO4)3,0.2565999999999997,0
mp-570217,Tm(SiOs)2,0.0,0
mp-22290,Mn6Si7Ni16,0.0,0
mp-764732,LiCo2(PO4)3,0.0,0
mp-1027663,Te4Mo3WSe4,0.0,0
mp-1028869,Te3W2S,0.0,0
mp-755313,Sc2O3,4.127599999999999,0
mp-635441,SiI4,2.8561,0
mp-676437,CoPS3,0.0,0
mp-29144,KTe2F9,4.5077,0
mp-28564,Rb4PbBr6,3.9028,0
mp-27978,PuI3,0.0,0
mp-30570,CrGaFe2,0.0,0
mp-633099,Sb2Pb2O7,1.6296000000000008,0
mp-974365,RuAu3,0.0,0
mp-229,ZrRh3,0.0,0
mp-6310,Ba3Y(BO3)3,3.8152999999999997,0
mp-567197,YSnAu,0.0,0
mp-772260,Li10Ti4O13,3.9595,0
mp-19893,PbCO3,3.3293,0
mp-23137,Ba2YBiO6,1.8236999999999997,0
mp-556319,SiO2,5.198,0
mp-771282,Li24Ti7Cr5O36,1.2134,0
mp-977145,Ho3P,0.0,0
mp-555763,ZnS,2.0639,0
mp-767715,Li34(Sb3S2)3,0.0,0
mp-780866,LiFe2Si2O7,2.0098,0
mp-600156,H22RhC3(N3O4)2,3.2578,0
mp-21124,SrIn4Pt,0.0,0
mp-649608,K3Pr2(NO3)9,3.4494000000000002,0
mp-571125,Ce8Ni18P11,0.0,0
mp-780496,Fe3OF5,1.4064,0
mp-764163,Li3FeO4,0.0,0
mp-89,Cr,0.0,0
mp-567926,B4Rh5,0.0,0
mp-13323,Ba2EuNbO6,0.0,0
mp-27798,B4H5,2.8803,0
mp-1042942,TiZn(GeO3)2,1.7124999999999995,0
mp-567612,ScOs2,0.0,0
mp-554231,Nd5Cu5O13,0.0,0
mp-559233,SeS4N3Cl5,2.3783,0
mp-625150,ScHO2,4.412,0
mp-989197,GeClF,2.5328000000000004,0
mp-23763,SnH8(NCl3)2,2.3166,0
mp-680333,Ge4Se9,1.2221,0
mp-1036,NpRu2,0.0,0
mp-1048332,ZnCrP2O7,2.5553000000000003,0
mp-754308,Li3Cu3(PO4)2,0.7068000000000003,0
mp-752535,TaIn3O7,1.0756999999999994,0
mp-972454,Sm2Mg,0.0,0
mp-620812,Y2Ge5Ru3,0.0,0
mp-720461,P3H22C3N9O11,4.9847,0
mp-950,NaZn13,0.0,0
mp-1042442,Mg2Sn3O8,1.9335000000000004,0
mp-698361,CuH36C8(N5O4)2,0.8099999999999999,0
mp-631323,HgOsPb2,0.0,0
mp-567626,MgZn2,0.0,0
mp-630866,Fe3Pb4ClO8,1.0373999999999999,0
mp-540895,CsCo(CO)4,3.8385,0
mp-778259,PrHfO4,0.19340000000000002,0
mp-867281,Tc3Pt,0.0,0
mp-17375,K2Na3TlO4,1.3295999999999997,0
mp-631505,BeCuBr,0.07699999999999996,0
mp-985585,Li3ClO,4.6766000000000005,0
mp-865572,CeAu3,0.0,0
mp-675192,Ce3Dy2O9,1.8935999999999997,0
mp-777185,Li4V2(PO4)3,0.5211999999999999,0
mp-862546,Sc2AlRu,0.0,0
mp-1020712,ZnSiN2,3.1948,0
mp-767534,Na2CuPCO7,0.0,0
mp-568231,RbMnBr3,1.2465000000000002,0
mp-555786,Si(PbO2)2,2.4895,0
mp-27138,K2PdBr4,1.2048999999999999,0
mp-1013797,Na3Ge3(MoO6)2,0.0,0
mp-1042474,BaMnAlCuO5,0.0,0
mp-23228,PCl5,1.7747,0
mp-10739,TiPRu,0.0,0
mp-4740,Y(CrSi)2,0.0,0
mp-758068,K2Yb2O3,2.2465,0
mp-771360,Li6MnSn3(PO4)6,2.5692,0
mp-674503,Hg2SbF6,0.0,0
mp-753731,Ba2CaI6,3.6354,0
mp-1310,TbRh2,0.0,0
mp-612,PS,2.4974,0
mp-3088,LaBRh3,0.0,0
mp-754779,Li2NbS3,0.0,0
mp-617352,Te3WICl6,0.0,0
mp-764722,Li3Fe8(BO3)8,1.4157000000000002,0
mp-8714,Rb2MnS2,1.1062999999999998,0
mp-571589,Mo2C,0.0,0
mp-572124,SrTi2O5,1.9511,0
mp-540456,LiCr(PO3)3,2.9745000000000004,0
mp-1046609,Ca4Co5(TeO6)3,1.5187000000000004,0
mp-24205,SrHI,3.5902000000000003,0
mp-12024,RbVSe2,0.0,0
mp-4228,Nd(CoSi)2,0.0,0
mp-22874,PBr5,1.6183,0
mp-28448,DyCl3,3.8943,0
mp-674831,Cu2S,0.0,0
mp-1041494,Mg(CuO2)2,0.0,0
mp-771898,Cs2SO4,4.5791,0
mp-973019,LiSm(CuP)2,0.0,0
mp-9900,Ag2GeS3,0.45169999999999977,0
mp-11555,PuRu,0.0,0
mp-979935,RbYb3,0.0,0
mp-1019545,Be(PN2)2,4.0393,0
mp-28094,RbDy2Cl7,4.5280000000000005,0
mp-16956,Na3Sc2(PO4)3,4.6575,0
mp-706983,K3HPtS2(ClO3)2,3.0012,0
mp-31506,Mg32Al36Ag13,0.0,0
mp-694890,NaCaFe2(SiO3)4,1.2069999999999999,0
mp-3848,BaGe4O9,3.0551,0
mp-29249,GeAsSe,1.4624000000000001,0
mp-581229,Gd2Ge2O7,2.7786999999999997,0
mp-569826,K2Ge2Se5,1.8025,0
mp-568592,ZrNCl,1.7433999999999998,0
mp-769478,Li4Ti4V4CoO18,1.0827,0
mp-1042677,Zn3Fe4(SbO4)6,1.4031,0
mp-22332,TaInS2,0.0,0
mp-1013704,Ca3BiSb,0.0,0
mp-629397,FeNiN,0.0,0
mp-770380,Ta3InO9,2.8472999999999997,0
mp-754684,Ba4IrO6,0.0,0
mp-15842,Nb2Co12P7,0.0,0
mp-759432,LiCu(PO3)3,0.6513999999999998,0
mp-6297,CaCu(GeO3)2,0.0,0
mp-29857,Bi3Se4Br,1.0642,0
mp-19441,CaCr(Si2O5)2,3.3907000000000003,0
mp-27230,As2SO6,4.407900000000001,0
mp-7387,KAgF4,1.8518,0
mp-997032,MgAuO2,0.0,0
mp-13964,HfGeTe,0.0,0
mp-3615,Nd(BO2)3,5.4208,0
mp-18040,KPrF4,7.1314,0
mp-601716,FeBiSbS4,0.16389999999999993,0
mp-556031,Sn2P2O7,3.6278,0
mp-1019258,SrF2,5.9356,0
mp-23022,KClO3,5.4604,0
mp-541,Ta3Sb,0.0,0
mp-557006,Na2SbSO4F3,4.4339,0
mp-772644,Li6Cr(BO3)3,2.3399,0
mp-10061,ErBPd3,0.0,0
mp-780807,Li2TiCr3O8,0.0,0
mp-774386,Li2Cr3P4(HO4)4,2.8400000000000003,0
mp-772118,NaCuCSO7,0.42580000000000007,0
mp-626481,Al(HO)3,3.8282000000000003,0
mp-9066,NaLi2AsO4,3.8891,0
mp-773431,K2NiPCO7,0.0,0
mp-540884,YCl,0.0,0
mp-863707,KNa2Bi,0.0,0
mp-561008,Ca(PO3)2,5.5318000000000005,0
mp-17112,K3Ge4Au,0.8272999999999999,0
mp-41414,BaLaMgBiO6,1.2851999999999997,0
mp-1047671,CaMn2O4,0.0,0
mp-1042897,Ge2SbO6,0.0,0
mp-10534,Sm10S19,0.49650000000000016,0
mp-4813,NbAlNi2,0.0,0
mp-675250,KBi2F7,3.581,0
mp-12644,Ba2LuNbO6,2.8478999999999997,0
mp-781767,Li3Fe2(CuO4)2,0.0,0
mp-685281,TiZnH12(OF)6,3.0957999999999997,0
mp-5526,La(CoSi)2,0.0,0
mp-556500,NClOF4,1.6345,0
mp-833,CaPd2,0.0,0
mp-770219,NbAsO4,2.6353,0
mp-628631,GdBi2IO4,1.3080999999999996,0
mp-1042536,CoW2O7,2.2233,0
mp-11918,Ca(BeN)2,2.3869000000000002,0
mp-504900,Eu(SbPd)2,0.0,0
mp-4264,K2S2O5,3.1804,0
mp-675209,Dy2PbS4,2.0230999999999995,0
mp-754745,Na2SnO3,2.4741000000000004,0
mp-757796,Al2H10S3O17,5.6867,0
mp-772086,Ba4Sn3O10,2.7237999999999998,0
mp-1028709,Te2MoW3(Se2S)2,0.0,0
mp-972542,SmTlAu2,0.0,0
mp-10922,Mg2Co12P7,0.0,0
mp-767776,P4WO12,2.9530999999999996,0
mp-616641,K2UI5,0.3168000000000002,0
mp-6548,K2La2Ti3O10,2.0435,0
mp-675,ZrW2,0.0,0
mp-780115,Li7Cr3Co(PO4)6,2.1361000000000003,0
mp-11480,MnSnIr,0.0,0
mp-625108,H5NO2,1.5646,0
mp-7405,SmAlO3,4.7681,0
mp-782,Te2Pd,0.0,0
mp-545788,Ba3ZnN2O,0.42289999999999983,0
mp-776212,Hf2N2O,2.0725999999999996,0
mp-628665,AlBiTeCl4,2.1036,0
mp-755794,Rb3LuO3,2.0393999999999997,0
mp-673702,Na2CeO3,1.9758999999999998,0
mp-625509,H3BrO,4.4183,0
mp-504640,U3Ni3Sb4,0.0,0
mp-570511,CdI2,2.3710999999999998,0
mp-30559,LaCo13,0.0,0
mp-1018136,LaBiPt,0.0,0
mp-759441,LiCu(PO3)2,1.4952,0
mp-638061,AlInCl4,4.1864,0
mp-1044800,Ba2AlV2F11,2.4566,0
mp-770409,Tm2GeO5,3.9474000000000005,0
mp-8075,NaBe4SbO7,3.3858999999999995,0
mp-540818,Tl2Ge2Se5,1.4125999999999999,0
mp-756795,Rb3PbO3,0.11729999999999974,0
mp-754208,ErInO3,2.5532,0
mp-850131,NiS2,0.0,0
mp-541289,Y2S3,1.4880000000000004,0
mp-19917,ZrSiTe,0.0,0
mp-1041946,Ca(FeO2)2,1.7351,0
mp-766084,Li7Nb12O24,0.0,0
mp-1046377,Zn4Sn5(TeO6)3,1.3579999999999997,0
mp-849752,Li4Cu3Sn(PO4)4,0.0,0
mp-9705,Ba4Na(BN2)3,2.0441,0
mp-756148,Sm2Pt2O7,1.1981000000000002,0
mp-9440,YbAgSb,0.0,0
mp-570477,LaSmI4,0.0,0
mp-708066,Sb6H3CCl13O10,1.5069,0
mp-30608,Er2Ni17,0.0,0
mp-1042473,BaYMnCuO5,0.0,0
mp-571598,Ga2Au7,0.0,0
mp-370,CdS,0.2713000000000001,0
mp-27936,Na2SbF5,4.824,0
mp-706243,Al2Si3H8(NO5)2,4.4184,0
mp-2351,TmPt3,0.0,0
mp-12979,SnO2,0.0,0
mp-571627,CaCl2,5.3328,0
mp-574112,Ti(AlCl4)2,0.3218000000000001,0
mp-983365,K3Hg,0.0,0
mp-764423,Li2CrF4,1.9648999999999996,0
mp-1046766,Zn(Sn2O3)2,0.04430000000000067,0
mp-974882,Rb3Mo,0.0,0
mp-1049203,LaMgCrBiO6,0.0,0
mp-19242,YNiO3,0.0,0
mp-638424,Sb2S2O9,4.0335,0
mp-5950,Cd2Os2O7,0.0,0
mp-12012,KPrGeSe4,1.6332,0
mp-27590,CsB9H14,3.8007,0
mp-555743,LiZnPO4,4.1939,0
mp-29515,PH2F3,6.4376,0
mp-615746,RbBiF4,2.8659,0
mp-568534,P4C2Se3N2,2.2422999999999997,0
mp-553994,Ni3(BiS)2,0.0,0
mp-1018737,KMgP,1.6589,0
mp-680232,K2AgC3(SN)3,3.206,0
mp-1009787,RuC,0.0,0
mp-542903,ZrPbO3,2.7758000000000003,0
mp-23560,Ge3(BiO3)4,3.4880999999999998,0
mp-28945,Si2NiP3,0.0,0
mp-767687,Li4Si2NiO7,3.4341999999999997,0
mp-768360,Li3(FeS2)2,0.0,0
mp-982366,Tb2S2O,2.5113000000000003,0
mp-1029726,Li6IrN4,0.0,0
mp-605642,KB3(HO3)2,4.8267,0
mp-8579,Ba(AgS)2,0.8761000000000001,0
mp-3683,Ho3(CuGe)4,0.0,0
mp-778794,V3Cr2Sb3O16,1.1733000000000002,0
mp-27594,As4(Pb3S5)3,1.5730999999999997,0
mp-756469,DyLuO3,4.6339999999999995,0
mp-1231,Cr3Ga,0.0,0
mp-2034,W2C,0.0,0
mp-675367,Nb3IrS8,0.0,0
mp-754741,ZrO2,3.4022000000000006,0
mp-582572,ErNiGe2,0.0,0
mp-8454,KF,6.3537,0
mp-640926,Cu(NO3)2,0.0,0
mp-1048447,Ba2YMn2TlO7,0.0,0
mp-3186,TbB2Ru3,0.0,0
mp-558381,PtCI2O,1.5903,0
mp-976244,LiMg,0.0,0
mp-582751,Y5GaCo5,0.0,0
mp-1006883,CoNi,0.0,0
mp-626193,Sc(HO)3,5.0212,0
mp-568514,BPBr2NCl3,2.9078,0
mp-776911,MgO,3.4257,0
mp-703461,GeH8N2OF6,5.6075,0
mp-22712,YPd2Pb,0.0,0
mp-583553,Mo6PbCl14,2.6067,0
mp-779739,Hf2N2O,2.1027000000000005,0
mp-972117,SrTeO3,3.6061000000000005,0
mp-560373,Bi3Pt3O11,0.0,0
mp-10662,K2CO3,3.2835,0
mp-30850,TaPt3,0.0,0
mp-691121,Sr3La5Mn8O24,0.0,0
mp-1018164,PtC,0.0,0
mp-696528,KPH3NO3,4.8289,0
mp-554225,CsFeF4,2.8735,0
mp-975883,PrNdHg2,0.0,0
mp-997031,MgCuO2,0.0,0
mp-557743,KCaAl2F9,7.1437,0
mp-556330,Cs2Ga2B2O7,3.7986,0
mp-757963,K2MgH8(CO5)2,4.7126,0
mp-504746,Cu5As2,0.0,0
mp-541765,Ba9(NbN6)2,1.2610999999999999,0
mp-571170,H32RuC8N4Cl7,0.15259999999999996,0
mp-10048,GaAs,0.0,0
mp-780721,Na4Bi2O5,2.6917999999999997,0
mp-720118,Sr3Nd10Al12Si18(N2O)18,3.0068,0
mp-7634,Cu3As,0.0,0
mp-996958,AgHO2,0.0,0
mp-19177,CrO2,0.0,0
mp-555366,LiHo(PO3)4,5.9286,0
mp-976125,PrGaAu2,0.0,0
mp-698223,Na2PH5O6,4.3816999999999995,0
mp-2118,RhN3,0.0,0
mp-18287,Ce2(SbPd3)3,0.0,0
mp-1028729,TeW2Se2S,0.0,0
mp-540812,Sr2CuF6,0.0232,0
mp-1048230,BaAg4O7,0.0,0
mp-1045598,MgTi(PO3)4,0.20530000000000026,0
mp-10670,Ca3(AlGe)2,0.0,0
mp-1027023,TeMoWSeS2,0.0,0
mp-10185,Mg3ZnC,0.0,0
mp-555867,BaNb2Bi2O9,2.2153,0
mp-997009,BaAuO2,1.1728,0
mp-757551,Li3Sn3(PO4)4,0.25239999999999974,0
mp-9909,Ba5Sb3,0.0,0
mp-20158,PbO2,0.0,0
mp-974834,EuNi3,0.0,0
mp-1042969,TiZn(GeO3)2,2.0269,0
mp-734019,Na2Zn(HO)4,3.0835,0
mp-9333,La3TiSb5,0.0,0
mp-643279,K2H6Pt,3.9984,0
mp-27247,Na3NbO4,3.7688999999999995,0
mp-558393,Rb2Nb3Cl7O5,2.3515,0
mp-867124,La2ZnIr,0.0,0
mp-2251,Li3N,0.9840000000000001,0
mp-10373,Cr3PdN,0.0,0
mp-1019,YNi2,0.0,0
mp-22050,Hf2In5,0.0,0
mp-770690,Mn3TeO6,0.5237999999999996,0
mp-757791,SmY15O24,4.0144,0
mp-22631,Co2N,0.0,0
mp-525,NbSe3,0.0,0
mp-975784,PrY3,0.0,0
mp-1020717,Zn2SiO4,2.1159000000000003,0
mp-1043032,Ti(GeO3)2,3.2157,0
mp-571343,Cs(CoSe)2,0.0,0
mp-973940,LiCd3,0.0,0
mp-780162,Li4Ti3(CoO4)3,0.5826000000000002,0
mp-1046001,Ba2AlTlCu2O7,0.0,0
mp-974068,Nd3Th,0.0,0
mp-530722,MgAl2O4,4.3367,0
mp-865357,Zn3Pd,0.0,0
mp-554396,Mg2SiO4,4.1471,0
mp-242,SrB6,0.0,0
mp-18867,Ba3W2O9,3.6729000000000003,0
mp-1529,LuIr,0.0,0
mp-8398,CsYbF3,7.049099999999999,0
mp-5326,Yb(CoSi)2,0.0,0
mp-6462,VAg(PS3)2,0.0,0
mp-1928,PuMn2,0.0,0
mp-772424,RbLi2V2(BO3)3,2.4291,0
mp-12359,AgSbTe2,0.0,0
mp-9968,PrSi,0.0,0
mp-22249,CeSbRh,0.0,0
mp-28507,La8Nb7S22,0.0,0
mp-30013,SbKr3F11,1.3064,0
mp-979964,YbH2ClO2,0.0,0
mp-17509,Rb2NaCr(CN)6,1.8634000000000002,0
mp-849656,Li5Co4(Si3O10)2,0.17579999999999996,0
mp-775869,Li4Cr5SbO12,1.4181,0
mp-23559,In(IO3)3,3.0681,0
mp-1028871,Te2MoW3(SeS2)2,0.0,0
mp-563032,Ba21Si2O5,0.0,0
mp-623028,Cs2NbAgS4,2.2195,0
mp-8402,RbMgF3,6.938400000000001,0
mp-31337,InPd3,0.0,0
mp-695608,Rb8BaNaAl11Si13O48,2.0294,0
mp-6185,ErCo(CN)6,4.2943,0
mp-32120,Mo3(PO4)4,1.6307999999999998,0
mp-557683,Zn3(BO3)2,2.7833,0
mp-10015,SiOs,0.0,0
mp-569032,PrAu6,0.0,0
mp-695170,Nd3Al3Si3(NO6)2,3.8758,0
mp-673,HoNi2,0.0,0
mp-1385,CeZn2,0.0,0
mp-861937,Ba2AsAu,0.5188000000000001,0
mp-23680,H(CO)2,2.8764,0