mp_id,formula,band_gap,fidelity
mp-560100,CdCu2(BO3)2,0.10600000000000032,0
mp-22942,BaBiO3,0.0,0
mp-1047803,Mn3ZnP3O13,0.14610000000000012,0
mp-23378,EuAgBi,0.0,0
mp-1029978,KRuN2,0.0,0
mp-558111,Rb2MnF6,3.3045,0
mp-9753,Na2NbF6,0.2885,0
mp-568546,In5Br7,2.0724,0
mp-696886,KH(CN2)3,0.0,0
mp-1028854,Te2MoWSeS,0.0,0
mp-10519,Cu2SnS3,0.02120000000000033,0
mp-561005,SrBi6(PO5)4,3.5083999999999995,0
mp-15012,KBS2,2.7676000000000003,0
mp-22582,Tb3Mn3Ga2Si,0.0,0
mp-1019272,TaN2,0.0,0
mp-1888,RbGe,1.0150000000000001,0
mp-14439,K5TlO4,1.4847,0
mp-601902,Tl2HPtC5N5O,3.2976,0
mp-561237,LiCaBO3,5.040100000000001,0
mp-973892,EuAlO3,0.0,0
mp-542302,CuBi3PbS6,0.6220999999999997,0
mp-761676,Li2Co3SbO8,0.5744000000000002,0
mp-1025588,W3(Se2S)2,0.8828999999999998,0
mp-626644,Ca(HO)2,4.2274,0
mp-676290,RbHS,1.3683999999999998,0
mp-776767,Li2VF4,0.31779999999999964,0
mp-691065,K6Ba2CaU6O24,1.9524000000000004,0
mp-722401,ZnH16C6S2(N2Cl)2,4.1405,0
mp-20425,NpSi3,0.0,0
mp-10344,Ba2PrNbO6,2.9772000000000007,0
mp-680154,Rb2Ti(GeO3)3,2.7546,0
mp-4930,TiAl2O5,2.9468,0
mp-995225,CsBaSiHO4,3.9698,0
mp-778347,LiFeF4,3.1029999999999998,0
mp-38683,Co2NiO4,0.0,0
mp-14088,Rb2PdF6,2.2614,0
mp-1042689,CaBiWO5,1.5585999999999998,0
mp-972828,Cu3Si,0.0,0
mp-558110,TiS2,0.013400000000000079,0
mp-9665,K3BAs2,1.3130000000000002,0
mp-540675,SeCl4,3.0467,0
mp-770890,Mg(CoO2)2,0.06289999999999996,0
mp-698622,Sr10Mn5Zn9(AsO)10,0.03629999999999978,0
mp-720985,CaEr15Si8Se11ClO28,2.5023,0
mp-971835,Tl3H,0.0,0
mp-707364,AgH3CN3O4,0.8278,0
mp-973992,Ho3Pb,0.0,0
mp-5476,Cs4Mg3F10,6.2806,0
mp-1047607,MoF5,1.2841,0
mp-20423,Nd3SnC,0.0,0
mp-984705,ErRu3,0.0,0
mp-5985,HoTaO4,4.073,0
mp-570572,C3N4,1.3801999999999999,0
mp-2758,SrSe,2.231,0
mp-29205,YBO3,5.1669,0
mp-569151,MnGaPt,0.0,0
mp-6332,Li2TiSiO5,3.2152999999999996,0
mp-684730,EuTi2CdO6F,0.0,0
mp-982244,Pa3H,0.0,0
mp-555497,SiO2,4.3008,0
mp-996955,HAuO2,1.2630000000000001,0
mp-1070,CdSe,0.56,0
mp-17620,TmBO3,2.3564,0
mp-555425,K2Th(CuS2)2,1.1260000000000003,0
mp-581413,Ta2Hg2F11,0.9340999999999999,0
mp-22094,Tl2Ru2O7,0.0,0
mp-974843,Rb3Os,0.0,0
mp-754472,HoCuO2,2.5410000000000004,0
mp-1030536,MoW3(SeS)4,0.7535000000000003,0
mp-1029073,Te2Mo(WSe2)3,0.006299999999999972,0
mp-21134,K(InAu2)2,0.0,0
mp-7188,Al2Os,0.30320000000000036,0
mp-864979,Gd2ReC2,0.0,0
mp-568428,KNa(BH4)2,6.1615,0
mp-28947,NaSn2Cl5,2.9783,0
mp-18941,Co2SiO4,1.3970000000000002,0
mp-2625,U2C3,0.0,0
mp-706715,Na5P5(H9O7)2,4.9948,0
mp-694955,NaLi2La3Ti6O18,1.9293,0
mp-23522,BaZnCl4,4.5948,0
mp-505344,U3Co7B2,0.0,0
mp-772809,KSnPCO7,2.6819,0
mp-15953,P2Rh,0.37049999999999983,0
mp-553926,NaLiB4O7,5.7974,0
mp-626587,Al(HO)3,4.8222000000000005,0
mp-757527,LiTi6O12,0.0,0
mp-42458,SrAl3P2(HO2)7,4.9878,0
mp-973771,Lu2MgHg,0.0,0
mp-1009663,ReC,0.0,0
mp-28671,ZrTe2Br5,1.1092,0
mp-19363,HgMoO4,2.2464000000000004,0
mp-559612,KLiO,2.3803,0
mp-573030,Cs2LiNbS4,2.4582,0
mp-309,ThAg2,0.0,0
mp-11260,Ti3Au,0.0,0
mp-13619,ScSi7Rh3,0.0,0
mp-1009131,MnAs,0.0,0
mp-30656,TiGaNi,0.0,0
mp-770711,GeWO4,1.0688,0
mp-380,ZnSe,1.2004,0
mp-766870,Mn5O9F,0.6072,0
mp-1025657,Te4Mo2WS2,0.0,0
mp-17435,Zr4Fe4Si7,0.0,0
mp-706525,NaAl3P2(HO3)4,5.4975000000000005,0
mp-553432,TiO2,3.4299,0
mp-4079,Sc3AlC,0.0,0
mp-685048,Ag2Te,0.0,0
mp-1040941,CaFe2P2O9,2.0565,0
mp-616559,Ti2S,0.0,0
mp-3995,La(CuSi)2,0.0,0
mp-1025927,Te2Mo3(SeS)2,0.0,0
mp-850532,LiSn2(PO4)3,2.9236,0
mp-22909,ZnCl2,4.0533,0
mp-675535,La2SnSb4,0.0,0
mp-764552,LiFe2(BO3)2,1.745,0
mp-708961,BeH8SeO8,3.9964000000000004,0
mp-1345,CaP,0.3443000000000005,0
mp-540737,ZrP2H4O9,3.2057,0
mp-740757,Mg2Cu2P2(H4O5)3,0.2864,0
mp-978253,Ce3(SiRh)2,0.0,0
mp-24075,Ho(HO)3,3.6657,0
mp-12388,Er3Al3NiGe2,0.0,0
mp-733604,Ba2Mg3H10,3.0265000000000004,0
mp-767576,Li6MnO4F,1.2066999999999999,0
mp-1045482,Y(CoO2)2,0.5415000000000001,0
mp-558713,LiAlSiO4,4.6935,0
mp-11449,HfMn2,0.0,0
mp-5525,KAlO2,3.9993999999999996,0
mp-6223,DyNi2B2C,0.0,0
mp-769526,Li7MgNi7O16,0.10109999999999975,0
mp-616821,U2PbSe5,0.0,0
mp-15002,Sr2CaIrO6,0.0,0
mp-30117,W2CCl8,1.2971,0
mp-20122,DyGe,0.0,0
mp-27607,Bi4Se3,0.0,0
mp-1042009,CaVP2O7,2.1767,0
mp-35591,LiErS2,1.9886999999999997,0
mp-780913,Na2VO3,1.8482000000000003,0
mp-1020181,Na2ZnB6O11,4.7511,0
mp-989540,Sr6Sn2NO,0.0,0
mp-1027328,MoW3(SeS3)2,0.5672999999999999,0
mp-5734,Ce(SiPt)2,0.0,0
mp-1047347,YSb(WO4)2,0.3616999999999999,0
mp-27637,NiBr2,0.0,0
mp-23571,KBa4Bi3O,0.7284000000000002,0
mp-778485,Ba2Ga6O11,2.6626000000000003,0
mp-644292,Eu2MgH6,0.24760000000000026,0
mp-13674,NaGeAu3,0.051200000000000134,0
mp-30109,Sb2(AuF6)3,0.16720000000000002,0
mp-770635,LiNiO2,0.0,0
mp-582146,CsNb4Cl11,0.45420000000000016,0
mp-542115,Hg3Se3O10,1.9291,0
mp-7486,BaNiS2,0.0,0
mp-504427,Ti3PbO7,1.9724,0
mp-720244,NaCaMgAl(SiO3)4,2.5873000000000004,0
mp-554828,Na2Be(GeO3)2,3.7105,0
mp-754027,NaSmO2,3.6122000000000005,0
mp-4126,KUO3,0.44540000000000024,0
mp-1502,Al2Pt,0.0,0
mp-974887,LiNdSn2,0.0,0
mp-30596,Cu11Sb3,0.0,0
mp-754979,Y3AlO6,4.374099999999999,0
mp-768373,Ba2YBr7,3.8550999999999997,0
mp-18445,Ba2MnS3,1.1094999999999997,0
mp-27697,ThI4,1.8296999999999999,0
mp-976420,Nd3Ho,0.0,0
mp-696396,NaHCO3,5.2718,0
mp-25959,LiBi(PO3)4,4.1457,0
mp-569811,Yb11GaSb9,0.6382000000000003,0
mp-83,S,2.5657,0
mp-758374,Ta7(P2O7)8,0.0,0
mp-606912,S4N5Cl,1.8899000000000001,0
mp-571587,Na2LiN,0.0,0
mp-12091,Tl(FeS)2,0.0,0
mp-7363,Sr(ZnGe)2,0.0,0
mp-28464,Re3(TeI)7,0.8462999999999998,0
mp-1018026,LiAg,0.0,0
mp-4385,CdCO3,2.6226000000000003,0
mp-974788,Nd,0.0,0
mp-557399,KSnSO4F,3.8905999999999996,0
mp-542583,EuTe,0.0,0
mp-979430,YLuTl2,0.0,0
mp-3504,NbNi2Sn,0.0,0
mp-3652,Ta9(FeS3)2,0.014899999999999913,0
mp-28758,KPd2F5,0.2475,0
mp-760506,PNO,3.9940999999999995,0
mp-2507,GaS,1.8818000000000001,0
mp-971891,Zn2PdAu,0.0,0
mp-984351,CuAg3,0.0,0
mp-10131,Zn3(Ni10B3)2,0.0,0
mp-771306,Dy2P4O13,5.3785,0
mp-1028512,TeW2S3,0.0,0
mp-866199,AcAg,0.0,0
mp-20436,TaSiRh,0.0,0
mp-561112,Zn2SeCl2O3,4.0939000000000005,0
mp-1044410,PrMg(AgO3)2,0.0,0
mp-676499,Cu6PbO8,0.0,0
mp-1045036,YSn(WO4)2,1.9086999999999996,0
mp-31164,Ce7Ru3,0.0,0
mp-510128,U(HO2)2,2.4873000000000003,0
mp-768422,TmHO2,4.8302,0
mp-998298,CsSnF3,3.1037999999999997,0
mp-1044096,TiZnP2O7,0.0,0
mp-1648,Al12Re,0.0,0
mp-773864,TiSnO4,2.254,0
mp-10584,Ba2LiOsO6,0.0,0
mp-768518,LaAlO3,4.4362,0
mp-18853,TlV2AgO6,2.1487,0
mp-1046683,MgMnSiO5,0.8003,0
mp-11511,LaAlGe,0.0,0
mp-1346,B6O,1.8524000000000003,0
mp-1043195,V(GeO3)2,1.6478000000000002,0
mp-763247,LiVSiO5,1.7594999999999998,0
mp-570631,U(FeP)2,0.0,0
mp-1019110,SmPbAu,0.0,0
mp-1018157,CrN,0.0,0
mp-638686,AgNO3,2.0088999999999997,0
mp-24160,BH3NF3,7.7194,0
mp-677474,Na4Al3Ge3NO15,0.010000000000000009,0
mp-30892,Ba4Bi3,0.0,0
mp-601867,Ba3(SnP2)2,0.8645999999999998,0
mp-867293,LiCo2Si,0.0,0
mp-1047188,Mg2SnWO6,2.2891999999999997,0
mp-555835,Gd3Sc2(GaO4)3,0.49250000000000016,0
mp-647,NbS,0.0,0
mp-685249,K2OsO5,1.3774,0
mp-862613,LiAc2Ga,0.0,0
mp-554440,CuSeO3,0.021500000000000075,0
mp-542915,TiAl3,0.0,0
mp-567574,DyAgGe,0.0,0
mp-561891,AgCNO,0.0,0
mp-772925,Li4Ti5O12,3.0153,0
mp-2303,DyZn,0.0,0
mp-19027,Na5CoSO2,1.1386999999999998,0
mp-551267,Rb4CO4,0.5892,0
mp-1014311,C3N,0.0,0
mp-777529,Li2VF6,1.9224,0
mp-1725,CaZn2,0.0,0
mp-14283,Sr2InF7,4.9452,0
mp-541867,CsRe3(O3F5)2,3.0448,0
mp-1017441,SrRhO3,0.0,0
mp-981392,HoHfOs2,0.0,0
mp-20253,InSb,0.0,0
mp-22867,RbBr,4.1927,0
mp-680403,K2In3AgSe6,0.9771999999999998,0
mp-30791,Ho3(AlNi3)2,0.0,0
mp-1043169,MgCo2O5,0.28159999999999996,0
mp-1020161,Na3Al2(PO4)3,5.2294,0
mp-1029950,Te2MoWS2,0.29949999999999966,0
mp-29244,Cd2P3I,1.0992000000000002,0
mp-14395,NaAlAsO4F,3.4604,0
mp-1046915,Mg(WO2)2,1.1872000000000003,0
mp-29943,H5NO5,3.5445,0
mp-9071,Na8TiAs4,1.0363000000000002,0
mp-19518,BaCr(Si2O5)2,3.2289,0
mp-24383,Mg(H2N)2,3.0137,0
mp-22210,Co2As,0.0,0
mp-769583,Li3VCr3O8,1.5089000000000006,0
mp-560356,Sm3Si2S8I,2.5119999999999996,0
mp-1044733,CaPr(NiO3)2,0.0,0
mp-778169,LiCu2(SO4)3,0.0,0
mp-20775,CeDyS3,0.0,0
mp-760131,Li2Cu2F7,0.0,0
mp-772959,Er2P4O13,5.477,0
mp-779058,LiV2OF5,0.6409,0
mp-583581,W2NCl9,1.7811,0
mp-571599,Ba(BiPd)2,0.0,0
mp-867790,Ba5Ru2O11,0.3404999999999996,0
mp-18932,LiPr(WO4)2,3.6337,0
mp-998512,InPbCl3,2.5321999999999996,0
mp-1027672,MoWSe3S,0.8466,0
mp-1042571,Mg(WO2)2,0.43400000000000016,0
mp-695808,Ni(PO3)4,0.13699999999999996,0
mp-9319,Ba2PrPtO6,0.0,0
mp-568100,ReNCl4,1.0777,0
mp-978912,TbYIr2,0.0,0
mp-1045981,MgCuO2,0.0,0
mp-22589,TiFeSn,0.0,0
mp-18073,K7TaAs4,1.0407000000000002,0
mp-865560,Y2AlZn,0.0,0
mp-775177,Co3Cu(PO4)4,0.0,0
mp-31080,YAlSi,0.0,0
mp-7077,KAuS,2.1003000000000003,0
mp-608071,NO2,0.8807000000000003,0
mp-545467,Li3(CuO2)2,0.0,0
mp-1046272,Sr2Cu2BiO7,0.0,0
mp-772052,CdSeO4,1.8471,0
mp-1045838,YCu3(MoO3)4,0.3709000000000007,0
mp-698594,Sm2Mo2O7,0.2610000000000001,0
mp-624191,CuBiPbS3,0.6137000000000006,0
mp-13286,CaGe2,0.0,0
mp-5854,LiGaO2,3.1981,0
mp-20527,La(FeGe)2,0.0,0
mp-779015,SmHIClO13,0.13069999999999998,0
mp-542103,TbRh3C,0.0,0
mp-1028708,Te6MoW3S2,0.0,0
mp-20662,Sn4Pt,0.0,0
mp-997599,Na8Ta7VO24,1.2602000000000002,0
mp-560798,Ba3Dy2(PS4)4,2.3736000000000006,0
mp-1018067,CrFe3,0.0,0
mp-16995,Sm3Si6N11,3.0112999999999994,0
mp-767568,Li3Mn4(PO4)6,0.0,0
mp-690460,BaLa2Mn3O9,0.0,0
mp-2074,Li3Sb,0.6960999999999999,0
mp-753048,TiSnO4,1.8366999999999996,0
mp-105,Te,0.0,0
mp-11305,Li2CdPb,0.0,0
mp-30950,Sr3GeO,0.3363999999999998,0
mp-19833,InAgS2,0.37570000000000014,0
mp-1694,Yb2Ge,0.03819999999999979,0
mp-22963,K2TeBr6,2.3386,0
mp-607475,Zr4In5Co2,0.0,0
mp-30864,Y2Sn5Rh3,0.0,0
mp-569604,SbH18C3(NCl2)3,2.9658,0
mp-12418,SrCaGe,0.4478,0
mp-1046607,Y2MgMn2S2O5,0.0,0
mp-4824,NaZnP,0.9143000000000003,0
mp-30677,Tm3Ga5,0.0,0
mp-753486,BaCaI4,3.3933999999999997,0
mp-505472,Al3(Ni10B3)2,0.0,0
mp-770978,Na2SiSbCO7,0.0,0
mp-768731,Li2BiBO4,2.1135,0
mp-770633,RbLi2Co2(BO3)3,1.1508,0
mp-1043316,Ni(GeO3)2,0.0,0
mp-690708,KLiPH2O4F,4.9035,0
mp-16529,Al6Ru,0.0,0
mp-13073,PrNiGe3,0.0,0
mp-10428,Cu8SiSe6,0.4090000000000007,0
mp-16608,Si3Os2,0.8552999999999997,0
mp-777990,Tm2Sb2O7,2.1304,0
mp-626392,H6N4O9,2.8929,0
mp-29744,RbMnSe2,0.0,0
mp-1046855,Ca(SbO2)2,0.9652000000000003,0
mp-6062,YAl3(BO3)4,5.351400000000001,0
mp-2013,HoTl3,0.0,0
mp-21013,Cs2LiFe(CN)6,0.0,0
mp-1044712,Ca(AgO2)2,0.0,0
mp-706630,B5H7,3.5551,0
mp-755374,Sm2TeO6,2.5849,0
mp-762244,Li2AgF4,0.5475999999999999,0
mp-775240,Fe2Cu(PO4)3,0.0,0
mp-997013,AgClO2,0.0,0
mp-28688,SrHgO2,2.1807,0
mp-2156,TiS2,0.0,0
mp-978596,Sm2Au2O5,0.0,0
mp-683942,BaU(SeO4)2,0.4181999999999999,0
mp-555919,KH3C2S2O,2.5354,0
mp-772342,Y2W2O9,1.9714999999999998,0
mp-10365,MnCoSi,0.0,0
mp-778513,LiFeF4,3.9826,0
mp-677430,NaLiLa2Ti4O12,1.9969000000000001,0
mp-451,ZrB,0.0,0
mp-770517,Li9Al(NiO4)2,2.8286,0
mp-675987,Ag7(SI)2,0.0,0
mp-978949,Sm3Ho,0.0,0
mp-570621,V2Ga8Cu3,0.0,0
mp-706279,Li2ZrFe(PO4)3,2.0109000000000004,0
mp-11143,BaCu9Si4,0.0,0
mp-624417,CdI2,2.3365,0
mp-1046811,Sr2YAlW2O7,0.8197000000000001,0
mp-428,PrMg3,0.0,0
mp-1047490,YFe(WO4)2,2.4675000000000002,0
mp-722382,PH11C(NO2)2,0.24760000000000004,0
mp-643063,NbSe2,0.0,0
mp-772048,Na2BiBSO7,3.0667,0
mp-709885,Rb4LiH3(SO4)4,4.0899,0
mp-8948,CeAsPd,0.0,0
mp-30668,Ta5Ga3,0.0,0
mp-19067,Mg3V6(FeO6)4,2.2285999999999997,0
mp-18882,VSiP2O9,2.7465,0
mp-4324,Tm2CdS4,1.1768,0
mp-579544,Ca6Cu2Sn7,0.0,0
mp-567701,Ba21Al40,0.0,0
mp-22530,LaYbO3,0.0,0
mp-684736,TiH12N3F7,3.5435,0
mp-541877,TaTeCl9,2.6448,0
mp-570150,CaAlSi,0.0,0
mp-6124,NaAl(SiO3)2,5.2254000000000005,0
mp-865659,Y2ZnIr,0.0,0
mp-753081,Li3(CuO)4,0.0,0
mp-675301,Na(NO)2,0.0,0
mp-974642,LiAg2Pb,0.0,0
mp-764702,LiFe2(BO3)2,1.5956000000000001,0
mp-28998,Sn5(BIr3)2,0.0,0
mp-695113,P4H35C4(NO)16,0.0,0
mp-754767,Fe3(SnS4)2,0.0,0
mp-1030784,TeMoWSe3,0.0,0
mp-20897,Ba4Y2Cu6O13,0.0,0
mp-973625,Lu2AlTc,0.0,0
mp-555178,Rb5H5(OF3)2,5.3515,0
mp-777694,Li4Ti3V5O16,1.0774999999999997,0
mp-72,Ti,0.0,0
mp-540855,Rb6O,0.0,0
mp-759774,Na6Ti11O24,0.0,0
mp-1044853,TiO2,1.8458,0
mp-1025731,Te2Mo2W(SeS)2,0.0,0
mp-542953,CaZn3Ni2,0.0,0
mp-35320,Ag3(AsO4)2,0.0,0
mp-241,CdF2,2.8977000000000004,0
mp-19897,Eu2TeO2,0.0,0
mp-1009086,BeSnP2,0.9218000000000002,0
mp-621581,P3Rh4,0.0,0
mp-778001,Tm(ClO4)3,5.0743,0
mp-32309,Sr4Re2NiO12,1.866,0
mp-38008,Li2CdCl4,3.6296999999999997,0
mp-768815,NaSbAsCO7,0.0,0
mp-976261,NaCa2In,0.0,0
mp-641367,Cr3AuO8,1.1076000000000001,0
mp-560275,PNF2,5.8154,0
mp-24064,PHF2,3.7857,0
mp-1041233,ZnSn3P3O13,0.0,0
mp-761219,Na8TiO6,2.0926,0
mp-1028850,Te2MoW3(Se2S)2,0.0,0
mp-10214,Y2GeRh3,0.0,0
mp-1008762,TaN2,0.0,0
mp-4901,Y2MgCu2,0.0,0
mp-7038,TlPd2Se3,0.1379999999999999,0
mp-1019108,SmCoSi,0.0,0
mp-8535,ErSi2Rh3,0.0,0
mp-674712,Ca(La2Se3)4,0.0,0
mp-7496,ThZn2,0.0,0
mp-17908,Ba2TiS4,2.0967999999999996,0
mp-776173,Ti3Cu2Sb(PO4)6,0.03730000000000011,0
mp-27227,LiAg3O2,0.7277999999999998,0
mp-758192,LiCuPO4,0.12919999999999998,0
mp-865360,Tm2MgIr,0.0,0
mp-1030418,Te2Mo3W(SeS2)2,0.0,0
mp-763240,LiCoSiO4,1.2652,0
mp-722330,Li3La2H6(N3O10)3,3.5098,0
mp-1009084,BeSnAs2,0.6936999999999998,0
mp-19230,K3NaCr2O8,3.0589000000000004,0
mp-706477,La2Si2O7,1.9245,0
mp-753378,TaGaO4,3.2764999999999995,0
mp-757838,LiSn(PO3)3,4.0600000000000005,0
mp-19214,CeVO4,0.0,0
mp-696986,CsH2CO3,3.4219999999999997,0
mp-29128,K2Te4O9,2.9189000000000003,0
mp-711,CeGa6,0.0,0
mp-1040819,LaCrWO6,2.2439,0
mp-696904,CaBi2(CO)2,0.0,0
mp-861534,LiNiPO4,3.2718,0
mp-1018112,YSb2,0.0,0
mp-12047,K3Na(RuO4)2,0.4915999999999998,0
mp-559733,GdH7C2SO8,2.8774,0
mp-685168,BeF2,6.5396,0
mp-24281,InH36C12S6(IO2)3,2.4953,0
mp-28892,PH4N3,4.6014,0
mp-29635,PuGa,0.0,0
mp-561034,Ag9Ge2IO8,0.0,0
mp-28069,Ca3AsCl3,1.8384,0
mp-34042,KY3F10,5.996700000000001,0
mp-30224,Si3(Cl4O)2,5.5809,0
mp-558288,CdAs2S2(OF3)4,3.4895,0
mp-1018780,Li3SmBi2,0.0,0
mp-684690,Sc2Se3,0.5374000000000003,0
mp-20083,ScCuSi,0.0,0
mp-1048172,Ba2Mn3O8,0.0,0
mp-11257,SmAu,0.0,0
mp-542533,CsNaB4H12O13,4.9524,0
mp-22872,SbCl3,3.7419,0
mp-20575,Nd2InGe2,0.0,0
mp-636291,PuGa6,0.0,0
mp-1018720,HfVSi,0.0,0
mp-1029359,CaHfN2,0.3495999999999997,0
mp-27234,Cu(IO3)2,0.32699999999999996,0
mp-647102,KNOF2,3.2687,0
mp-643643,BaH2CSNClO,4.8714,0
mp-697179,ZrH,0.0,0
mp-30842,ZrPd3,0.0,0
mp-556051,Rb2GeO3,3.0091,0
mp-9250,RbLiSe,2.3089,0
mp-19939,La(CoGe)2,0.0,0
mp-686055,Sr3Pr4O9,2.3406,0
mp-973278,KSr3,0.0,0
mp-19076,HoCrO4,0.24740000000000006,0
mp-980941,Ti3N,0.0,0
mp-3816,Er6Ni2Sn,0.0,0
mp-30198,Ba4Ga2O7,3.2427,0
mp-1029457,Ba(CoN)2,0.0,0
mp-570577,SrAlSi4N7,3.580400000000001,0
mp-646878,In4SnS4,1.1714000000000002,0
mp-763241,Li3Cr2P2(CO7)2,0.11119999999999997,0
mp-765739,VOF,0.7756999999999996,0
mp-570652,Hg6BiAs4Cl7,1.2948000000000002,0
mp-974434,RuF4,0.5254,0
mp-560459,Rb3Al2(PO4)3,4.4173,0
mp-771992,Na2Fe2C4SO16,0.0,0
mp-1048410,VN,0.0,0
mp-1046998,BaCa(AgO2)4,0.0,0
mp-762412,Li2Mn3O6,0.8406000000000002,0
mp-23694,LiBH,0.0,0
mp-556821,RbEu(SO4)2,0.0,0
mp-697977,Sr2AlH7,3.1294000000000004,0
mp-1028452,Te3W2Se,0.30960000000000054,0
mp-768291,Hg(SbO3)2,0.0,0
mp-1047547,Zn(AgO2)2,0.23470000000000013,0
mp-9394,U2Cr3Si,0.0,0
mp-555303,LiEr(PO3)4,5.7413,0
mp-505803,MnFeAs,0.0,0
mp-555443,PNF2,5.484299999999999,0
mp-735524,VP2(HO)6,2.8845,0
mp-12061,Lu(FeB)2,0.0,0
mp-761314,Ga2NiO4,1.4346,0
mp-28355,Na4Ge2Se5,1.6662,0
mp-5767,DyPO4,5.887,0
mp-756722,YbPrO2,0.0,0
mp-22930,Rb4CdCl6,3.9341,0
mp-510377,EuBRh3,0.0,0
mp-27375,Tl4HgI6,1.1909,0
mp-20026,Pu2Co,0.0,0
mp-1019892,La2B8O15,4.385699999999999,0
mp-1046421,SrV(PO4)2,1.7375,0
mp-769590,Li2V3CrO8,0.9900000000000002,0
mp-556551,GdSeClO3,2.993,0
mp-12093,Ge,0.0,0
mp-12837,Er3FeSi3,0.0,0
mp-757202,K7(Bi3O8)3,0.0,0
mp-774173,Li8MnFe7(BO3)8,3.116,0
mp-30727,MgCdAg2,0.0,0
mp-761592,Li3Fe2CoO6,0.43059999999999965,0
mp-13327,NdLuSe3,0.49560000000000004,0
mp-977463,MgMnRh2,0.0,0
mp-643394,NaInH8(NF3)2,5.0077,0
mp-5410,SmCo3B2,0.0,0
mp-554791,RuO4,2.4250999999999996,0
mp-553927,Pu(IO3)4,0.09099999999999975,0
mp-543019,GdNi2,0.0,0
mp-19068,TmVO4,2.9583,0
mp-13412,Y3Fe29,0.0,0
mp-15622,HfSe3,0.31709999999999994,0
mp-600520,SrCuH4(CO2)4,0.2561,0
mp-11160,SmSbIr,0.0,0
mp-568923,Ba2BN2Cl,2.7508,0
mp-6988,FeN,0.0,0
mp-757878,Na5Cu(HO2)2,1.4867000000000001,0
mp-571135,La3BCCl3,0.0,0
mp-863758,K2SrCdSb2,0.31679999999999975,0
mp-1808,Ti2Ni,0.0,0
mp-505071,Si2Pd9,0.0,0
mp-865708,LiSm2Ru,0.0,0
mp-3182,Th3B2C3,0.0,0
mp-13374,LaTmO3,4.414,0
mp-1030333,Te6Mo3WS2,0.011800000000000033,0
mp-28273,K3CuO2,1.5215999999999998,0
mp-762250,Sn2N2O,0.03880000000000017,0
mp-772938,Li2Ta4O11,3.4741000000000004,0
mp-30880,Tb2Zn17,0.0,0
mp-39387,SrLiTa2O6F,3.6165000000000003,0
mp-16744,Y(Al5Fe)2,0.0,0
mp-980069,YbPrRh2,0.0,0
mp-541840,DyC2,0.0,0
mp-3281,Al5BO9,4.9356,0
mp-12981,ScN,0.0,0
mp-979013,SmGe3,0.0,0
mp-1043644,Mg(SnO2)4,0.5072999999999999,0
mp-696822,LiNO3,0.0,0
mp-20898,DyInAg2,0.0,0
mp-568559,YbAg2,0.0,0
mp-6507,Na2Zn2Si2O7,3.323,0
mp-752895,Li3CuF4,0.9630999999999998,0
mp-757974,LiSn(PO3)4,0.0,0
mp-15797,LiErSe2,1.6151,0
mp-974337,RuPbO3,0.0,0
mp-770872,Li2Cr2O7,2.4046000000000003,0
mp-32465,LiV(PO4)2,1.9609999999999999,0
mp-560950,K2NaTlO3,1.255,0
mp-866658,H16RhN5(Cl2O)3,1.6753999999999998,0
mp-545344,NdTe2ClO5,0.24799999999999933,0
mp-767146,Li7Ti12NbO30,2.6266,0
mp-23872,Ca3Al2H6S(OF)8,5.7404,0
mp-756435,Sr3Nb4O13,0.988,0
mp-27595,K2ReF8,1.0682,0
mp-22849,BiI3,2.5339,0
mp-684769,Sr2La6TiCu3O16,0.0,0
mp-978553,SiAs2,0.8847999999999998,0
mp-772282,Sb4I2O5,1.9298000000000002,0
mp-12678,TaMn2,0.0,0
mp-676261,Y3NbO7,2.1545,0
mp-541677,Cd2AsO4F,1.6984000000000001,0
mp-775679,Li2Mn3CrO8,0.6906999999999996,0
mp-778393,Ti3MnCo2(PO4)6,0.0,0
mp-28246,AgTe3,0.0,0
mp-541032,Te7As5I,0.30239999999999956,0
mp-772863,Na2Ge2O5,3.0053,0
mp-753632,Li2CrS3,0.0,0
mp-975530,RbAl,0.0,0
mp-559276,AlBPbO4,3.0814000000000004,0
mp-18610,Sm2SiSeO4,2.6087,0
mp-850228,Li6Mn5Fe(BO3)6,2.6117000000000004,0
mp-21289,TiZn3,0.0,0
mp-776274,Na5Bi2As(CO4)4,0.4722999999999997,0
mp-30423,VAu2,0.0,0
mp-22386,InAgTe2,0.06529999999999969,0
mp-972848,SiC3,0.0,0
mp-9223,ScGeRu,0.0,0
mp-1044622,MgTi2O4,0.0,0
mp-675033,Ga12Ag2Te19,0.6990000000000003,0
mp-566,CeP5,0.0,0
mp-2431,ErTl3,0.0,0
mp-4897,ScSnPd2,0.0,0
mp-558432,Na3P(SO)2,3.2791999999999994,0
mp-985293,Al(HO)3,5.800700000000001,0
mp-10648,YbSe,2.2565999999999997,0
mp-23446,GeBi2O5,2.3222,0
mp-571419,Zr2Al4C5,0.0,0
mp-4342,KNbO3,1.4759999999999998,0
mp-771922,Ba3YI9,2.8352999999999997,0
mp-9810,TlFeSe2,0.0,0
mp-1008395,C,4.115599999999999,0
mp-696651,K3NbHOF7,4.1033,0
mp-1029176,TeMoWSe2S,0.0,0
mp-600078,SiO2,5.6143,0
mp-755597,Ca2CeO4,2.161,0
mp-18420,Er3CrS6,0.23270000000000035,0
mp-772705,Li5Nb2Fe5O12,0.0,0
mp-768313,Dy2TeO6,3.0065999999999997,0
mp-625274,H5IO6,1.8659,0
mp-16897,Sr2Sb3,0.13230000000000075,0
mp-2499,BaSi,0.0,0
mp-29297,Cd3(ClO)2,1.1707,0
mp-644280,GaCuPt2,0.0,0
mp-18721,Mn2P2O7,3.2650000000000006,0
mp-30190,UMo13P9,0.0,0
mp-754936,DyAlO3,5.1659999999999995,0
mp-555091,Rb2Na2IrO4,0.0,0
mp-763819,Li4Mn7(OF7)2,1.7582000000000002,0
mp-1001023,BeC2,1.6671,0
mp-18959,Y2Be2Fe(SiO5)2,3.9209,0
mp-550893,HfO2,3.8043000000000005,0
mp-867310,CeSnAu2,0.0,0
mp-1043063,Mn4Zn(CuO4)3,0.0,0
mp-3589,BPO4,7.2565,0
mp-24199,LiHF2,8.0448,0
mp-631542,BaZrNi,0.0,0
mp-20357,Ce2InPt2,0.0,0
mp-644129,KNiPH2O5,4.0043999999999995,0
mp-995203,H6PbCI3N,1.7574999999999998,0
mp-972486,Sm3Ti,0.0,0
mp-699473,Li2B12H26O7,5.2083,0
mp-996975,CuAgO2,0.0,0
mp-39020,LiTa3N4,0.0,0
mp-3541,CeNiGe2,0.0,0
mp-30597,Cu10Sn3,0.0,0
mp-505627,Nb3Co2Si,0.0,0
mp-778734,Li6Fe3Sn(PO4)6,1.6764000000000001,0
mp-753746,Rb2O,0.45309999999999995,0
mp-18732,TiNiO3,2.8864999999999994,0
mp-28557,Ag2PdCl4,1.1217000000000001,0
mp-27127,Te4O9,2.2225,0
mp-8952,HoAsPd,0.0,0
mp-780134,Li4Ti3V2Cr3O16,1.1816999999999998,0
mp-559523,RbMgF3,2.2027,0
mp-21170,KPb2,0.0,0
mp-775336,Li4V2Co3Sb3O16,0.8033999999999999,0
mp-761940,Li2MnCo3O8,0.0,0
mp-753515,Sb3O4F,2.3882000000000003,0
mp-396,YbGa,0.0,0
mp-644325,CsFeSiO4,3.0859,0
mp-733509,Na2TiSi4H4O13,3.2593,0
mp-1048419,Mg2TaNb2O8,0.1711999999999998,0
mp-542772,CsAgCl2,2.3368,0
mp-752725,LiAgF2,1.2719,0
mp-1025654,Te4Mo2WS2,0.0,0
mp-729,Cr3Si,0.0,0
mp-543040,Ga2Te3(HO2)6,3.7626999999999997,0
mp-995234,HCO,4.3171,0
mp-1043388,V2O3,0.4411999999999998,0
mp-7310,ZrPbF6,5.0238,0
mp-766230,Rb2NaZn2H5(C2O7)2,4.0529,0
mp-23241,YBi,0.0,0
mp-571035,OsCl4,0.5104999999999998,0
mp-673023,LiBi(PO3)4,4.8168999999999995,0