mp_id,formula,band_gap,fidelity
mp-554343,K2CuSbS3,1.1907,0
mp-10271,ZnCo3C,0.0,0
mp-23858,H8PtN2(ClO)2,1.7313,0
mp-705011,LiFeP2O7,0.9664999999999999,0
mp-763209,Li2VO2F,1.0057,0
mp-542996,Ta6Fe16Si7,0.0,0
mp-1002210,EuS,0.0,0
mp-260,CrB,0.0,0
mp-24341,CsBeH3,3.2171000000000003,0
mp-779519,Ba4Hf3O10,3.604,0
mp-10368,CoPSe,0.6400999999999994,0
mp-773170,Cr3SbO8,0.5591999999999997,0
mp-772141,Ba2LaI7,2.5892999999999997,0
mp-567861,KNiAu3(CN)6,1.3538999999999999,0
mp-605437,FeHO2,1.9678000000000004,0
mp-16238,Li2AgSb,0.14290000000000003,0
mp-625635,H4N2O3,0.0,0
mp-11843,DyAl,0.0,0
mp-558183,MoS2N2Cl5,0.5399,0
mp-569246,Tl2HgGeTe4,0.08859999999999957,0
mp-1753,ThAs,0.0,0
mp-764642,Li2CoSiO4,2.5197,0
mp-558708,Nd2Cu(GeO4)2,0.37460000000000004,0
mp-1009217,MnSb,0.0,0
mp-19342,WO3,1.3331,0
mp-861145,Sm27Y5O48,3.7730000000000006,0
mp-676663,ZnSnSb2,0.0,0
mp-761136,NaTi8O16,0.0,0
mp-640095,La3Co,0.0,0
mp-6064,Sr3MgPtO6,2.6841000000000004,0
mp-675608,Nb3(CuTe3)2,0.0,0
mp-555428,Sr5(ReO6)2,2.1062000000000003,0
mp-559593,PS3N5F2,2.5324,0
mp-1918,FeRh,0.0,0
mp-558990,K2Sr(PO3)4,5.602600000000001,0
mp-684966,Tb8O13,0.0,0
mp-675383,Li3(Mo3S4)2,0.0,0
mp-690511,K10Co4O9,1.435,0
mp-560180,AsS4N5F6,2.4391,0
mp-1018730,In2Cu,0.0,0
mp-976423,Nd3Pd,0.0,0
mp-8250,La(NiP)2,0.0,0
mp-30946,Ga2PdI8,1.4176,0
mp-758044,Li5Ti8O16,0.0,0
mp-868046,Fe9Cu3O16,0.0,0
mp-1025,ThAu2,0.0,0
mp-675161,NaYF4,7.206200000000001,0
mp-571405,NdTl,0.0,0
mp-7834,TaSe2,0.0,0
mp-1009813,SiSn,0.4112999999999998,0
mp-558050,Rb2NaMnF6,1.5342,0
mp-684653,Cu2Se,0.0,0
mp-542295,NaYbGeO4,0.0,0
mp-557480,Te2SO7,2.9042,0
mp-1019273,TaTi2N3,0.0,0
mp-1043864,CaLaFeSbO6,1.9744000000000002,0
mp-631465,YRhW2,0.0,0
mp-1014303,Cr3N2,0.0,0
mp-7479,RbYbO2,0.0,0
mp-1029580,Sr4ZrN4,0.8592,0
mp-770376,Mn2P4O13,1.1223999999999998,0
mp-1030268,TeMoWSeS2,0.0,0
mp-794,CrTe,0.0,0
mp-4233,KMnSb,0.0,0
mp-1045565,Mn4ZnO8,0.0,0
mp-30241,Mg5(HO3)2,3.8709,0
mp-27164,FeP4,1.0765000000000002,0
mp-559875,K3Na2LiTeO6,2.2125999999999997,0
mp-755875,Ti3O4,0.0,0
mp-545482,PdSeO3,1.0589,0
mp-2484,SmSn3,0.0,0
mp-558772,Rb2ZrS4,1.9236000000000002,0
mp-773184,Li2MnSnO4,0.8064,0
mp-676517,La3U2O10,0.21050000000000058,0
mp-6684,NaCdPO4,2.9166000000000003,0
mp-780179,Li7FeCo3(PO4)6,0.0,0
mp-567838,La2AlNi9H,0.0,0
mp-16488,Al9Co2,0.0,0
mp-757685,Li2Cu(SiO3)2,0.08719999999999972,0
mp-676084,Na2SnS,0.0,0
mp-780490,LiCr(PO4)2,1.1546,0
mp-5334,YbSbAu,0.0,0
mp-12689,Er2InPd2,0.0,0
mp-14455,Cu4Ag(AsO4)3,0.0,0
mp-1044930,Mg(SnO2)2,0.044800000000000395,0
mp-18792,Ca3(CoO3)2,0.0,0
mp-973396,KBeO3,0.0,0
mp-866196,Li2PrIn,0.0,0
mp-10055,Co2B4Mo,0.0,0
mp-696931,TlCuHSeO5,0.0,0
mp-1027404,Mo3W(Se3S)2,0.734,0
mp-772740,Ba4Lu6O13,2.5346,0
mp-695967,Ag3P6H12N3O19,0.0,0
mp-32667,SiO2,5.3845,0
mp-162,Yb,0.0,0
mp-607987,CsInI4,2.2731,0
mp-13918,Sr(GeAu)2,0.0,0
mp-2063,Pr2O3,3.7451999999999996,0
mp-698365,MgH10C4(N2O3)2,4.785,0
mp-761969,Li4Fe3Ni3(SbO8)2,0.0,0
mp-28591,Na4HgP2,0.03649999999999998,0
mp-761873,KTiF4,0.0,0
mp-781954,Fe5(OF4)2,0.8138000000000001,0
mp-972626,SmGaAu2,0.0,0
mp-680460,Rb2Cd2(SO4)3,2.5197,0
mp-610,MnAs,0.0,0
mp-778385,B3H3SeO9,3.2394,0
mp-777481,Ba6YBr15,4.0156,0
mp-13149,BaAlSi,0.0,0
mp-23664,YH3(CO2)3,3.988,0
mp-22613,Nb3FeS6,0.0,0
mp-863755,KYGeS4,2.4167,0
mp-30227,Rb2WCl6,0.0,0
mp-866301,BaBSbS4,2.3423000000000003,0
mp-42255,NaCaNb2O6F,2.7833,0
mp-11737,Li4SiO4,4.7841000000000005,0
mp-720810,K5H3S4N2O15,3.9074,0
mp-558057,LiCdCoF6,0.0,0
mp-680689,SrTi2O5,1.8634,0
mp-756246,NdZrO3,0.05090000000000039,0
mp-14235,SrGa2(SiO4)2,3.9542,0
mp-654051,Nb6SI9,0.0,0
mp-601257,DyCuPbSe3,1.2113000000000005,0
mp-626483,H4SO5,5.2943,0
mp-862561,ScSbRu2,0.0,0
mp-542972,KNb2PS10,1.4962,0
mp-19179,Ba2V(SiO4)2,2.5878999999999994,0
mp-733455,Li3H6Rh,2.4252,0
mp-557391,Na2Ca2(CO3)3,4.8329,0
mp-545512,CaO,3.1205999999999996,0
mp-3151,Li3TaO4,4.5636,0
mp-706586,H4NClO4,5.3564,0
mp-976944,Li5Mg,0.0,0
mp-37829,La5TlSe8,1.3176999999999994,0
mp-21106,LaYbS3,0.0,0
mp-19460,Ba5Nd8Mn4O21,1.8889,0
mp-626225,Ca(H8O5)2,3.5136999999999996,0
mp-974023,In3Cu,0.0,0
mp-27365,BaBiSe3,0.7321,0
mp-656,LuS,0.0,0
mp-1027267,Mo3W(SeS)4,0.7035999999999998,0
mp-6565,Li3Sc2(PO4)3,4.7407,0
mp-21235,Mn2VGa,0.0,0
mp-15238,Ho4C5,0.0,0
mp-1030240,Te4Mo3WS4,0.0,0
mp-8961,Ba3NaTaO6,3.4045,0
mp-554337,Rb2IrF6,0.0,0
mp-559400,BeF2,8.085,0
mp-764459,Li3Fe4(BO3)4,1.8891000000000002,0
mp-559332,BiTeIO3,2.3329,0
mp-540258,Ti(PO3)4,1.9457,0
mp-11651,Yb3SnO,0.0,0
mp-672285,CuCSN,2.2647,0
mp-570557,NbCo3,0.0,0
mp-35397,Bi2WO8,0.22949999999999982,0
mp-11713,SiC,1.953100000000001,0
mp-862605,Rb4Zr6CCl18,1.2651999999999999,0
mp-13907,CdSnF6,3.8503999999999996,0
mp-557903,Lu2Ru2O7,0.0,0
mp-777514,Y2O3,2.8013999999999997,0
mp-395,ZrAl3,0.0,0
mp-18612,Rb2MoS4,1.575,0
mp-534773,Na2Al17Si11B7(H3O31)2,4.069699999999999,0
mp-861878,Cd2AgRh,0.0,0
mp-867121,LiY2Pt,0.0,0
mp-1041874,VZn(SiO3)2,1.7731000000000003,0
mp-998746,TlGeBr3,2.2565999999999997,0
mp-13446,Co2P,0.0,0
mp-1001017,Zn(InSe2)2,0.03180000000000005,0
mp-9890,TaAgO3,1.9156000000000004,0
mp-17344,RbEr2Cu3S5,1.4910000000000005,0
mp-28143,H8S5N2,2.1413,0
mp-1020125,MgSiO3,4.5985,0
mp-2852,C3N4,2.8993,0
mp-4090,Ce(SiRh)2,0.0,0
mp-1034098,KRbMg14O15,2.1228999999999996,0
mp-615366,FeS2,0.0,0
mp-559783,Na3B(PO4)2,5.168,0
mp-8281,Ba(CdAs)2,0.1591999999999998,0
mp-1048636,Sr3MgCr2S2O5,1.3072999999999997,0
mp-560742,Ba2TeP2O9,3.4201,0
mp-23679,PuH3,0.0,0
mp-686086,Tl9SbTe6,0.4892000000000003,0
mp-753349,LiTiSiO4,0.0,0
mp-540784,Rb2Ti6O13,2.6209000000000002,0
mp-978287,Mg3Mo,0.0,0
mp-7632,NiMoP,0.0,0
mp-768382,La2Al4O9,3.7105999999999995,0
mp-768353,YTmO3,3.1706000000000003,0
mp-764775,Li7VO5F,1.9844,0
mp-30494,ScCd3,0.0,0
mp-567330,TiCl3,0.0,0
mp-769558,LiMn(CO3)2,0.0,0
mp-1042856,Ca2V3O8,1.6111,0
mp-541772,Bi4RuBr2,0.5303999999999998,0
mp-21670,ThInCu5,0.0,0
mp-17171,LaF3,4.9435,0
mp-29096,Hg3(SBr)2,1.487,0
mp-21780,SmSi3Rh5,0.0,0
mp-775831,TiMn2O6,1.3592999999999997,0
mp-1040887,MgV2(PO4)2,1.9825,0
mp-865098,NaLaAu2,0.0,0
mp-698686,Na3CaFe4(SiO3)8,0.02970000000000006,0
mp-771050,Li7MgNi7O16,0.3481000000000001,0
mp-707176,NaCa2Al2P2H5O11F4,5.4845999999999995,0
mp-27146,Cs2Sb4S7,1.6153000000000004,0
mp-775192,VNi3(PO4)4,0.007099999999999884,0
mp-5031,TaSiAs,0.0,0
mp-758447,LiTi(PO3)4,0.21700000000000008,0
mp-18925,Li6CoO4,2.4,0
mp-8770,Cs2CoSe2,0.0,0
mp-9127,Ba(SbO3)2,2.8606,0
mp-631562,SiBAu,0.0,0
mp-1791,Al5Rh2,0.0,0
mp-998155,RbSrCl3,4.6184,0
mp-759302,Yb2TiO5,0.0,0
mp-541005,CsH5O3,4.5517,0
mp-2717,Zr2Ni7,0.0,0
mp-10018,Ac,0.0,0
mp-16518,TmAl4Ni,0.0,0
mp-1047454,AlSn3F15,2.7011000000000003,0
mp-17493,Be3Cd4Si3SO12,0.8171999999999999,0
mp-37923,Sm5AgS8,1.6384999999999996,0
mp-772981,Li2Zn3(Ge3O8)2,2.5146000000000006,0
mp-557195,KCa2Nb3O10,1.9567999999999999,0
mp-757840,Ba4(PtO3)3,1.5953000000000004,0
mp-6255,Ca3Sc2(SiO4)3,4.1025,0
mp-626354,H6N4O9,1.1695,0
mp-23827,Sr7(H6Cl)2,3.8615000000000004,0
mp-1030284,Te4Mo3W(SeS)2,0.0,0
mp-37153,AgAsF6,1.6805999999999999,0
mp-644499,CeCoGeH,0.0,0
mp-675640,Hg2AsF6,0.0,0
mp-32913,Nb16N13,0.0,0
mp-10765,Ho,0.0,0
mp-762023,LiNiPO4,3.1685000000000003,0
mp-773144,Mn3V2Cr3O16,0.7056,0
mp-781054,Li2Cr4O13,1.4861,0
mp-865569,Ti2MnIr,0.0,0
mp-866833,CaSnS3,0.0,0
mp-15237,Tb4C5,0.0,0
mp-16304,YPPt,0.0,0
mp-1042857,MgTi(GeO3)2,1.5801999999999996,0
mp-8287,SmCuP2,0.0,0
mp-557512,LaH4C4NO8,3.2798000000000003,0
mp-559605,SiO2,3.6950000000000003,0
mp-13451,Dy2Sb5,0.0,0
mp-777843,Ge2N2O,2.3947000000000003,0
mp-23167,TlCl,2.1809,0
mp-14889,K9Fe2S7,0.5147999999999999,0
mp-1019549,BaMg2Si2O7,4.5563,0
mp-1018057,HfBe,0.0,0
mp-4562,La(GeRh)2,0.0,0
mp-571315,Mg3Al8FeSi6,0.0,0
mp-773171,TiMn(PO4)2,1.0124,0
mp-9322,Rb2Sn2Se5,0.8418000000000001,0
mp-998554,KAgCl3,0.0,0
mp-1041927,Ca(CoO2)2,0.3157000000000001,0
mp-978973,Sm2ZnHg,0.0,0
mp-697960,Ba2Na2B10H2O19,4.6933,0
mp-549589,LaZnAsO,0.5760000000000005,0
mp-978545,Sm2AgHg,0.0,0
mp-29462,NaGa3Te5,0.9918999999999998,0
mp-974458,Re3F,0.0,0
mp-30723,Th2Hg,0.0,0
mp-754307,BaNdO3,0.0,0
mp-1044356,MgBiWO5,1.6053000000000002,0
mp-1811,HgTe,0.0,0
mp-560597,Na8Si6SnO18,3.8047000000000004,0
mp-684120,LiCuP2O7,0.7101000000000001,0
mp-467,Th3N4,1.4415000000000004,0
mp-1029504,KNbN2,2.0359,0
mp-561024,CaEu2(CuO3)2,0.0,0
mp-5910,CaCuSb,0.0,0
mp-3125,K3Zn2F7,4.0269,0
mp-673698,Cu2HgI4,0.4197,0
mp-643814,Zn2SiH2O5,3.1428,0
mp-763104,Li2MnF4,3.5855,0
mp-557890,Er2Hf2O7,3.0000999999999998,0
mp-704227,Mn9(PO4)8,0.25039999999999996,0
mp-4291,Ho(NiGe)2,0.0,0
mp-864618,BaHg2Pb,0.0,0
mp-556605,ZrO2,3.6906999999999996,0
mp-542045,UTlH(SeO4)2,2.1660999999999997,0
mp-769997,La2Ti3O9,3.781,0
mp-989551,LiTl2InF6,4.0172,0
mp-1028642,MoW3(Se3S)2,0.8890000000000002,0
mp-22945,TeRhCl,0.7782,0
mp-24452,CaP2H6O7,6.4004,0
mp-996998,HAuO2,0.8631,0
mp-19470,Na4Ni7(PO4)6,3.3516999999999997,0
mp-1029265,Mg2ZnN2,0.0,0
mp-776741,Li2Mn3SbO8,0.7369999999999997,0
mp-27144,TlPO3,3.4606,0
mp-28085,KAs2F7,4.7762,0
mp-23161,NpCl4,0.0,0
mp-998864,Br,0.0,0
mp-630883,Ni6Mo2P3,0.0,0
mp-972257,LaTb3,0.0,0
mp-853,ErNi5,0.0,0
mp-774430,Li2MnF4,4.592,0
mp-14398,CaSn(BO3)2,3.7009999999999996,0
mp-11466,NaHg2,0.0,0
mp-17597,Ca(ScS2)2,1.2884000000000002,0
mp-989585,Cs2KPbF6,0.0,0
mp-738597,H24RuC7S3NCl3O4,2.9703,0
mp-776001,Li4Nb3V3(SbO8)2,0.25849999999999973,0
mp-865798,GaCu3,0.0,0
mp-1025577,W3(SeS2)2,0.7054,0
mp-542264,BaNaCe2C4O12F,0.24960000000000004,0
mp-504943,KNaP2H2O7,5.2201,0
mp-531952,KW3Br7,2.6737,0
mp-560131,SiO2,5.685499999999999,0
mp-560226,NaNd(Si3O7)2,4.7954,0
mp-30283,Tb4SiBr6,0.0,0
mp-20935,ZrSnIr,0.0,0
mp-774319,Li10Ti2Fe3Ni3O16,1.553,0
mp-753769,Sr3Li3La5O12,2.9474,0
mp-684620,Nb25S48,0.0,0
mp-754637,NaCuP2O7,0.6747000000000001,0
mp-559447,Gd3Se4O12F,2.7816,0
mp-554097,Sm3CuSiS7,1.6556999999999995,0
mp-755311,NaLuO2,4.061,0
mp-541025,Ca3SiH30CSO25,4.4162,0
mp-574620,CsYZnSe3,2.1117,0
mp-27147,Rb3BiBr6,3.3,0
mp-973022,ScRu3,0.0,0
mp-865186,MgGaIr2,0.0,0
mp-16719,Al12Tc,0.0,0
mp-850229,LiV2P4(HO8)2,0.8465000000000003,0
mp-27337,Xe(OF)2,2.3643,0
mp-973633,LuSi2Ni,0.0,0
mp-974906,MnSn3,0.0,0
mp-571616,CdI2,2.4410000000000003,0
mp-1029331,LiHf2N3,0.6088,0
mp-779502,Na3CuO2,1.605,0
mp-556235,CaCO3,4.9926,0
mp-16237,La(SiAg)2,0.0,0
mp-14635,Rb2VAgSe4,1.0795,0
mp-752989,Ti8O13,0.1144999999999996,0
mp-605347,HgTe(H2O3)2,2.0783,0
mp-9577,Ca3(AlSi)2,0.0,0
mp-1014231,Hf2Zn,0.0,0
mp-554157,KNaZnP2O7,4.2038,0
mp-862700,AlVOs2,0.0,0
mp-1029739,Li6FeN4,0.0,0
mp-20539,ScIn3,0.0,0
mp-29326,La3(ReO5)2,0.0,0
mp-753800,NbOF3,3.6646,0
mp-17495,RbTiP2O7,0.10890000000000022,0
mp-542819,Cs3B12H12Br,4.7562,0
mp-3567,NaVSe2,0.0,0
mp-738668,NaH3(CO2)2,4.6376,0
mp-10060,DyBPd3,0.0,0
mp-999566,Mn2CuSb,0.0,0
mp-569608,BP2N2Cl7,3.0653,0
mp-16031,Sn3N4,0.23079999999999945,0
mp-636232,CeInAu2,0.0,0
mp-4742,Ho(GePd)2,0.0,0
mp-3419,RbAuF4,2.5364000000000004,0
mp-8796,Sr2LiSc(B2O5)2,4.626,0
mp-26855,Li2Sn(PO3)4,3.9056,0
mp-24004,Zn2PHO5,3.0356,0
mp-557203,SrZrO3,3.3637000000000006,0
mp-9612,La3Ir3O11,0.0,0
mp-1045888,ZnSn5O7,0.0,0
mp-755336,NdIO,3.5759,0
mp-677245,Na2Sr3As4,0.504,0
mp-2281,SmSb,0.0,0
mp-553025,CaBiClO2,3.6207000000000003,0
mp-13861,HfB4Ir3,0.0,0
mp-760400,Na5BiO5,0.8502000000000003,0
mp-720300,H4CSN2Cl,3.6188000000000002,0
mp-18992,Ba2MnTeO6,0.9367000000000005,0
mp-625762,Al(HO)3,4.7202,0
mp-505078,BaNb7O9,0.0,0
mp-1910,CeNi5,0.0,0
mp-720642,NaB3H4O7,5.3518,0
mp-2865,K2CuF4,0.339,0
mp-611033,SrRuO3,0.0,0
mp-2924,Ho(SiNi)2,0.0,0
mp-8121,SmCuSi,0.0,0
mp-631533,PPbW,0.0,0
mp-770497,Fe3CoNi2(PO4)6,0.0,0
mp-6814,AgCNO,2.8211,0
mp-24316,CdP2(HO)4,4.3757,0
mp-997000,AgHgO2,0.0,0
mp-626413,Yb(HO)3,0.0,0
mp-1046963,BaZn(CuO2)4,0.0,0
mp-30933,ZrBi,0.0,0
mp-762609,Li2CrCo3O8,0.0,0
mp-754526,TmBrO,4.427,0
mp-2182,SnAs,0.0,0
mp-570197,Bi2Pd,0.0,0
mp-686293,Yb15Mg5Ge16,0.0,0
mp-341,PbF4,1.9022000000000001,0
mp-504564,Si(PbS2)2,2.0436999999999994,0
mp-770710,Li3Mn7O16,0.0,0
mp-643033,KPH2SO3,4.5181,0
mp-979715,YHoAl2,0.0,0
mp-675626,Cu3AsSe4,0.0,0
mp-4075,TbZrSb,0.0,0
mp-569335,Sm2C3,0.0,0
mp-1030657,NaNbN2,2.2841000000000005,0
mp-1047674,AlAg(WO4)2,1.5337999999999994,0
mp-34139,Mn2CrO4,0.5625,0
mp-555074,Hg3AsS4Br,1.5311,0
mp-999207,Sc2MnSn,0.0,0
mp-772765,K2PrPCO7,4.2654,0
mp-30590,LaCu6,0.0,0
mp-861911,Sb2S2O,1.1829999999999998,0
mp-862962,CaLaZn2,0.0,0
mp-645208,Sr2Co2O5,0.0,0
mp-978557,SmDyHg2,0.0,0
mp-560025,Ag2S,0.36839999999999984,0
mp-604910,MnSe,0.0,0
mp-28485,Sb5IO7,2.4399,0
mp-684728,Ba2Tm2Al3Si5N11O3,0.0,0
mp-695512,Na3LaTi2Nb2O12,1.7230000000000003,0
mp-2176,ZnTe,1.0290000000000004,0
mp-28787,Zn2BIr2,0.0,0
mp-20698,LiCoAs,0.0,0
mp-8216,LaBO3,4.500700000000001,0
mp-1020613,Rb5GaO4,1.8405,0
mp-29888,Er(ClO4)3,5.0118,0
mp-761730,LiCo3CuO8,0.0,0
mp-4589,PrPO4,5.6478,0
mp-647900,TlAs3PbS6,0.0,0
mp-680180,K3Co(CN)6,4.134399999999999,0
mp-220,ThNi2,0.0,0
mp-773176,Li2CrAsCO7,2.96,0
mp-1019533,Ba9Y2(SiO4)6,4.5047,0
mp-1043778,TiZnBiO5,0.0,0
mp-756919,Mg3(AsO4)2,3.6574999999999998,0
mp-673029,LiSn2P5O16,0.0,0
mp-554094,CaMg2(SO4)3,5.7585999999999995,0
mp-975857,K3Mg,0.0,0
mp-558943,LiUAsO6,2.2759,0
mp-1948,LaAg,0.0,0
mp-8016,AlCuSe2,0.8921999999999999,0
mp-567442,CdI2,2.3555,0
mp-774723,CuH12C3SN6O7,0.5787,0
mp-505798,Na4TiSe4,1.6704,0
mp-695887,K3Cu2P4HO14,0.32510000000000017,0
mp-27333,Tl3CoCl5,0.6109999999999998,0
mp-1029213,Te2MoWSeS,0.0,0
mp-569026,Nb10Se40I3,0.0,0
mp-19385,YMnO3,0.0,0
mp-570634,Cd3As2,0.0,0
mp-5376,Y4Ga12Pd,0.0,0
mp-772413,Al8SiO14,4.0633,0
mp-696387,CaMg2H24(ClO2)6,4.9826,0
mp-1042887,CaNiAs2O7,2.6707,0
mp-697268,AgH2SNO3,2.8033,0
mp-540997,FeTeCl7,1.2702,0
mp-694881,NaNd3Ti3MnO12,0.0,0
mp-14686,Y5(Si7Os2)2,0.0,0
mp-13829,TlCu3S2,0.4070999999999998,0
mp-989569,Rb2NaPbF6,0.0,0
mp-554310,TlBiS2,0.49490000000000034,0
mp-1017548,Ca(BeP)2,0.7366000000000001,0
mp-22253,Zn(InS2)2,0.11450000000000049,0
mp-613989,Pu,0.0,0
mp-16855,K3Ta3Si2O13,2.9726,0
mp-774433,LiMnPO5,0.13850000000000007,0
mp-2116,ZrMn2,0.0,0
mp-11693,TePt,0.0,0
mp-24469,CaAl4Si2(HO6)2,4.5346,0
mp-1046147,ZnCrO2,0.09539999999999971,0
mp-7936,LiNbS2,0.7134999999999998,0
mp-23862,BaHI,2.8161,0
mp-27271,Tl8Ge5O14,2.2104,0
mp-775315,Si6Bi9O26,0.0,0
mp-625112,H8PtO6,1.5662000000000003,0
mp-697242,H5C2NO,4.9699,0
mp-4924,Pr(CuGe)2,0.0,0
mp-1043473,CaTi2(PO5)2,2.5527999999999995,0
mp-568725,Dy(FeB)2,0.0,0
mp-29295,Sr3Sb4S9,1.0408000000000008,0
mp-24615,LiH4SeNO4,3.8634,0
mp-754512,Ge11N11O5,0.0,0
mp-778364,Na6Ti2O7,3.4136,0
mp-560127,K2MnF6,3.1934,0
mp-708969,P2H24PdC12(BrN3)2,1.7182000000000002,0
mp-19961,CeIn5Co,0.0,0
mp-21343,CeB6,0.0,0
mp-10795,TaTlS3,0.5987999999999998,0
mp-560493,Ba2V(CuS2)3,0.6867000000000001,0
mp-1044460,CaPr(BiO3)2,0.0,0
mp-771388,MnP2O7,1.4175,0
mp-773141,BaLaCl5,3.9903,0
mp-1018946,PrZnGa,0.0,0
mp-27776,Cd2AsCl2,1.0820000000000003,0
mp-551758,AgClO4,2.3652,0
mp-755646,LiCuO,0.9533,0
mp-6465,NaTi(SiO3)2,0.0,0
mp-29223,Ba3Si5O13,4.514799999999999,0
mp-15709,LuCo3B2,0.0,0
mp-560354,SbCl(OF3)2,1.9104999999999999,0
mp-760510,Sr2Bi2O5,2.2664,0
mp-568230,TiCl3,0.027800000000000047,0
mp-22950,CsNiCl3,0.8181999999999998,0
mp-698063,Na2P2H2O7,5.205,0
mp-850223,Fe3OF5,1.2536999999999998,0
mp-22766,CaIn2O4,1.9991000000000003,0
mp-616440,C,4.3668,0
mp-560623,Mg3(PO4)2,5.1758999999999995,0
mp-1041076,HoMgCr2O6,0.5098000000000003,0
mp-4065,Dy(SiIr)2,0.0,0
mp-30376,ErInAu2,0.0,0
mp-554018,Mg3BeAl8O16,5.240499999999999,0
mp-981699,SmZnIn,0.0,0
mp-646586,Sm6InCo2,0.0,0
mp-31423,Ho3(CuSi)4,0.0,0
mp-758089,Li2Ti3O6,0.0,0
mp-4412,La4Se3O4,1.3261000000000003,0
mp-531272,GaAsO4,1.0653000000000001,0
mp-1043819,TiZnCu(PO4)3,0.0,0
mp-505270,TiSO5,2.5707,0
mp-867200,Pm,0.0,0
mp-776246,Zr2N2O,1.5631000000000004,0
mp-17216,Hf5Si4,0.0,0
mp-561386,K2Hg3C8(NO)8,3.3064,0
mp-864878,ZrAlAu2,0.0,0
mp-995214,H6PbCI3N,1.7627,0
mp-21061,GdSbPd,0.0,0
mp-30123,Hg2SeO5,0.7264,0
mp-7607,TiHgO3,1.3445999999999998,0
mp-1046905,Sr2YMn2AlO7,0.3918999999999997,0
mp-1027311,Te2MoWSeS,0.11509999999999998,0
mp-23020,BiSeI,1.5745000000000005,0
mp-21423,Pu2O3,0.0,0
mp-11098,YbMgPd,0.0,0
mp-20924,U(FeSi)2,0.0,0
mp-643793,Cu3H2(OF2)2,0.3217000000000001,0
mp-770624,Li2CoPO4F,2.9606000000000003,0
mp-690817,SrFeMoO5,2.086,0
mp-976115,K3Rb,0.0,0
mp-1009077,FeH,0.0,0
mp-1044227,BiWO5,0.17089999999999994,0
mp-542054,Hg9(PO4)4,1.8736000000000002,0
mp-677223,NaCaAl3(SiO4)3,3.4730999999999996,0
mp-556390,Rb10Si6O17,3.4663,0
mp-22917,CuBr,0.9948999999999999,0
mp-770902,LiFeAsCO7,0.04520000000000002,0
mp-632815,Li10Ge(PO6)2,4.4932,0
mp-684675,V12P7,0.0,0
mp-975103,RbMgPO4,4.5457,0
mp-7092,TiSi,0.0,0
mp-720655,Na4Al2Si6ClO24,0.0615,0
mp-7861,CrCuSe2,0.0,0
mp-558740,Dy3CuGeS7,1.8098,0
mp-560766,Ba4Nd2Cu2O9,0.0,0
mp-37995,Ti3Zn2O8,1.8044000000000002,0
mp-977572,Hf2MnRh,0.0,0
mp-8376,MgAlBO4,6.0077,0
mp-1046379,SrZnCo(PO4)2,2.9339999999999997,0
mp-30592,CuNi2Sn,0.0,0
mp-759382,Li2Ti7Nb6O30,2.2723,0
mp-864975,Mg2PdPt,0.0,0
mp-777413,CeScO3,0.0,0
mp-631487,LaBeOs2,0.0,0
mp-505502,Ce(PRh)2,0.0,0
mp-773046,Mg4Sc3(SiO3)8,0.0,0
mp-772840,Sm2Ge2O7,3.6725000000000003,0
mp-1046067,CaMn5O7,0.0,0
mp-1028749,TeWSe,0.23930000000000007,0
mp-556301,Li6CaCeO6,2.4639999999999995,0
mp-560010,Rb2Ga2B2O7,3.6744999999999997,0
mp-707473,InP(H2O3)2,3.6671,0
mp-31215,AgPdF6,0.2169000000000001,0
mp-18754,DyCrO4,0.2492000000000001,0
mp-1016903,CdGeO3,0.10599999999999987,0
mp-1798,CeMg3,0.0,0
mp-20943,TePb,0.0,0
mp-7898,Rb3As,0.0,0
mp-859100,Li2CuF5,0.5961000000000003,0
mp-5992,LaB2Ir2C,0.0,0
mp-19321,Na6MnO4,0.7766000000000002,0
mp-3375,Nd4Ge3Rh4,0.0,0
mp-973508,KRb3,0.0,0
mp-570850,LiCa2InGe2,0.004399999999999515,0
mp-758985,RbTiPS5,1.193,0
mp-680531,CaZn3,0.0,0
mp-1044943,Ti2ZnO4,0.0,0
mp-12630,MgSeO4,2.8689999999999998,0
mp-10983,ErVB4,0.0,0
mp-1014358,Cr3N4,0.0,0
mp-773605,Na3Mn(BO3)2,1.4053000000000002,0
mp-760829,Na(CuO)2,0.0,0
mp-555508,Ca11Si4SO18,3.5249,0
mp-3626,SrZrO3,3.4160000000000004,0
mp-1044687,Mg(CuO2)2,0.0,0
mp-643293,SrMgNiH4,1.8123999999999998,0
mp-2293,MnSe,0.0484,0
mp-977579,MgSbPd2,0.0,0
mp-567418,HoSbPd,0.3921999999999999,0
mp-631395,CaTaTc,0.0,0
mp-774360,Mn2V3Ni(PO4)6,1.2682,0
mp-706657,Al13Si5H18ClO38,4.2833000000000006,0
mp-560944,Cs4Ba(PO3)6,5.106400000000001,0
mp-989641,LaOsN3,0.0,0
mp-773709,Li3Fe(NiO3)2,0.0,0
mp-556278,Bi6As9Se4S10(O4F13)5,2.0126,0
mp-27373,SnClF,3.4437999999999995,0
mp-775322,Li5Fe8(BO3)8,1.4954,0
mp-707200,Na4P4H2O13,5.1224,0
mp-764734,Mn3VSb2(PO4)6,0.023499999999999854,0
mp-781880,Ba9La5Cl33,3.4450000000000003,0
mp-7948,ReSi,0.0,0
mp-631494,SrCrPd2,0.0,0
mp-971753,ZnGe3,0.0,0
mp-28431,Sb(IF3)2,0.559,0
mp-1029531,Sr3ReN3,0.0,0
mp-631255,InSiIr,0.0,0
mp-769359,Y2Bi2O7,0.0,0
mp-28556,Na3CuO3,0.7792000000000001,0
mp-862747,Sr2PtAu,0.0,0
mp-753768,TbPrO4,0.0,0
mp-862786,Ac2CuGe,0.0,0
mp-644203,CsCaH3,3.1483,0
mp-14133,Gd3Al5O12,3.4625,0
mp-1044793,PrZn(CoO3)2,0.0,0
mp-570001,Al6Fe,0.0,0
mp-1028821,TeW2Se2S,0.0,0
mp-974586,Rb2MgH4,3.2815,0
mp-1045354,Y(VS2)2,0.0,0
mp-572465,CrCu(PS3)2,0.9573999999999998,0
mp-677056,Na2UI6,0.0,0
mp-20278,Fe(BMo)2,0.0,0
mp-773603,Na3V(BO3)2,2.0938000000000003,0
mp-22747,Pb(CO2)2,2.7868000000000004,0
mp-1048143,Ba2AlW3O8,0.0,0
mp-684670,PtCl2,0.07159999999999989,0
mp-6252,Sr2CuTeO6,0.20910000000000029,0
mp-7432,Sr(CdSb)2,0.0,0
mp-571322,Nb3Ge,0.0,0
mp-558431,LiCu(PO3)3,0.6768999999999998,0
mp-643409,Ba4Y(CuO3)3,0.0,0
mp-8475,ErCoC,0.0,0
mp-1042127,BiS2,0.0,0
mp-976118,HgH6I3NO,1.4435,0
mp-31370,Na2S2O5,3.2692,0
mp-27623,Na6PbO4,1.3501000000000003,0
mp-1043451,Ti2Zn(PO5)2,2.4001,0
mp-613402,SrZrO3,0.0,0
mp-683791,Mn2InC10ClO10,2.454,0
mp-8037,BaThO3,3.2009000000000003,0
mp-765607,Na5Mn7O16,0.0,0
mp-20226,UGeIr,0.0,0
mp-3440,Li2(LuGe)3,0.0,0
mp-5694,NaHoS2,2.3055000000000003,0
mp-29682,BaAg8S5,0.4565999999999999,0
mp-568978,RbCdAg3(CN)6,2.7894,0
mp-736,Li3P,0.6996000000000002,0
mp-766888,Sb9PO25,0.0,0
mp-504573,Cr2CuO4,0.0,0
mp-755382,BiSbO3,2.1015999999999995,0
mp-23427,Ti3(BiO3)4,2.424899999999999,0
mp-760348,Li10Zn3(GeO4)4,2.7679,0
mp-2375,NpPd3,0.0,0
mp-12901,Tb6FeSb2,0.0,0
mp-765959,NaPH3C2N3O4,4.5922,0
mp-769931,Tm3TaO7,3.3792,0
mp-4316,Sr(NiAs)2,0.0,0
mp-2845,SbPt,0.0,0
mp-554216,K3Bi(PS4)2,2.0899,0
mp-971703,V3Ag,0.0,0
mp-29989,Sm3(SiIr)2,0.0,0
mp-647840,Fe2C8SO10,2.4444,0
mp-999545,Mn3Fe,0.0,0
mp-9584,Nd(BIr)4,0.0,0
mp-19875,GdSiRu,0.0,0
mp-23632,Ca2BN2Cl,3.3349999999999995,0
mp-12875,ReO2,0.0,0
mp-31079,Ce3(Al3Ru)4,0.0,0