mp_id,formula,band_gap,fidelity
mp-569883,Rb2(PSe2)3,1.4027999999999998,0
mp-1042753,Mg2Co3O8,0.0,0
mp-554142,Ge(TeO3)2,3.8764999999999996,0
mp-23176,SbCl5,1.8233000000000001,0
mp-1006323,CeLu3,0.0,0
mp-973684,LuMg3,0.0,0
mp-1043484,CaMn(GeO3)2,1.6037000000000003,0
mp-1067,LiAl,0.0,0
mp-22753,UFeC2,0.0,0
mp-1018041,Ti2MnIn,0.08050000000000068,0
mp-632724,ReH8(NCl3)2,1.0107000000000002,0
mp-545746,KSO4,3.5589999999999997,0
mp-770832,Li2BSeO4,2.3328,0
mp-15065,Cu(IrS2)2,0.0,0
mp-22487,EuScO3,0.0,0
mp-683975,K6Yb3(PS4)5,0.0,0
mp-12525,Sr2LiReO6,1.6795999999999998,0
mp-21057,La(GePt)2,0.0,0
mp-20339,Ti2InNi2,0.0,0
mp-1298,KAu5,0.0,0
mp-10623,ThSbRh,0.7443999999999997,0
mp-981234,Yb2InSn,0.0,0
mp-29245,Cd2P3Br,1.1423,0
mp-17699,Er2Cu(B2O5)2,0.6619000000000002,0
mp-755198,Cs3LaO3,1.7439,0
mp-20902,InAg(PSe3)2,0.6040999999999999,0
mp-1041517,Ca(SbO2)2,0.2206999999999999,0
mp-866056,AcN,0.0517000000000003,0
mp-12145,K2BaCu(NO2)6,0.22440000000000004,0
mp-504422,H7NO6,3.5739,0
mp-558571,Sc2Te5O13,2.9509,0
mp-626417,CsH3O2,4.0949,0
mp-10299,Ca4PdO6,1.8226999999999998,0
mp-977548,Nd2MgGe2,0.0,0
mp-21565,Tb(FeGe)6,0.0,0
mp-973342,SbRh3,0.0,0
mp-15889,Ba2LaIrO6,0.0,0
mp-4825,Li7VN4,2.84,0
mp-2537,NdS2,0.0,0
mp-2740,ErCo5,0.0,0
mp-1048348,CaVP2O7,2.8816,0
mp-943492,LiFeSO4F,4.1059,0
mp-759493,LiSbP2O7,4.0237,0
mp-559574,K3Sm(BO3)2,3.4183,0
mp-694942,BaNa5LiCo5F18,2.2675,0
mp-972650,SmDyRh2,0.0,0
mp-1027309,TeMoWSe2S,0.0,0
mp-649982,Sb8(Pb3S7)3,1.5115999999999996,0
mp-23443,MnTlI3,1.3903999999999996,0
mp-863754,KYSiS4,2.7932,0
mp-12742,MgPd3,0.0,0
mp-862752,SmBiPd2,0.0,0
mp-558377,B2H12C3(NO)6,4.5761,0
mp-738686,SbH24C6(NCl2)3,3.5956,0
mp-757883,LiSiBiO4,2.9488000000000003,0
mp-647680,MnSiO3,0.030199999999999783,0
mp-34081,NaYF4,6.936,0
mp-550117,Sm4Se3O4,1.2744000000000004,0
mp-684096,Bi(PO3)4,0.0,0
mp-12083,CrIr3,0.0,0
mp-862736,SmAg3,0.0,0
mp-558480,K2P2O5F2,5.0435,0
mp-18914,K2MoO4,4.3131,0
mp-567341,PrCoC2,0.0,0
mp-1018023,Mn3Sn,0.0,0
mp-546079,MgCO3,5.1935,0
mp-510571,BaNpPH2O7,0.03410000000000046,0
mp-998535,InPbCl3,2.9027999999999996,0
mp-641117,La5Ti4FeO17,1.4488000000000003,0
mp-35759,Li2NiF4,5.0816,0
mp-756654,SbOF,2.7582000000000004,0
mp-1018275,GaP,0.8334000000000001,0
mp-15201,Pr2Ti2O7,2.8979999999999997,0
mp-15046,Sb2(PSe3)3,1.4601000000000002,0
mp-27698,Y6UO12,1.9485999999999999,0
mp-1146,ThS2,1.0319000000000003,0
mp-866620,Cs2MgP4(HO2)8,5.3770999999999995,0
mp-862256,Cu2PdAu,0.0,0
mp-4006,ErPO4,5.919600000000001,0
mp-556238,CuC3(OF)3,2.789,0
mp-27741,TeAuI,1.1164,0
mp-764896,Li7Fe8(BO3)8,1.1563999999999999,0
mp-13356,Ba2SrTeO6,3.1291999999999995,0
mp-1041663,Ca(NiO2)2,0.19960000000000022,0
mp-1044160,MgCr4O8,0.0,0
mp-768738,Li3Bi(BO3)2,2.9149,0
mp-29449,Rb4Cu5Cl9,1.7887,0
mp-24148,LiLa2HO3,1.9418999999999995,0
mp-1041507,Mg3Ni3(AsO4)4,2.3202999999999996,0
mp-568594,CsYb3Se4,0.0,0
mp-976589,NaIn3,0.0,0
mp-6098,ErNi2B2C,0.0,0
mp-600191,B5H15C3N,4.1616,0
mp-867193,Sr2BiAu,0.3937999999999997,0
mp-558958,H2O,5.461,0
mp-752638,LiCuCO3,2.4586,0
mp-541145,Ge2C2(SF2)3,3.3624,0
mp-21515,Fe3S4,0.0034999999999998366,0
mp-7237,CuAgO2,0.0,0
mp-35799,Hf2Bi2O7,2.7787,0
mp-637614,Zn3(InS3)2,0.0,0
mp-1041789,ZnCr2O4,1.7480000000000002,0
mp-584116,Bi3(PO5)2,0.0,0
mp-559520,In2Ag3(PO4)3,0.9885000000000006,0
mp-557289,TiP2Cl8O3,2.7257,0
mp-28645,CaNiN,0.0,0
mp-4675,NaTaO3,2.2798000000000003,0
mp-1041762,Zn2CuWO6,0.3500000000000001,0
mp-540839,CsPbI3,2.5199,0
mp-568624,Tb2B2C3,0.0,0
mp-23534,KSn2I5,1.5097999999999998,0
mp-4013,Nd(SiRu)2,0.0,0
mp-765573,Li4Zr3O8,3.6980999999999997,0
mp-999263,RhN,0.0,0
mp-1044279,TiZnFe(PO4)3,2.3714,0
mp-1406,MnTe,0.0,0
mp-3465,LaB2Rh3,0.0,0
mp-755804,Lu6TeO12,2.8127000000000004,0
mp-676985,YbPaO4,0.0,0
mp-555246,Ba3LuRu2O9,0.0,0
mp-557577,K3ScSi2O7,3.6385,0
mp-768308,LaAgO3,0.0,0
mp-561232,NaSm(PS3)2,2.7929999999999997,0
mp-736665,Hg2H2C2NCl5,0.5335000000000001,0
mp-1003485,Mg2Mn3O6,0.1482000000000001,0
mp-998432,CaTcO3,0.0,0
mp-17789,K2RuO4,0.5193,0
mp-1042146,AlBi(WO4)2,2.3077,0
mp-995202,HC6,0.0,0
mp-39440,Ca2MnIrO6,0.0,0
mp-313,YC2,0.0,0
mp-766983,LiCa2Nb3O10,2.0222,0
mp-2284,AgF2,0.0,0
mp-1044923,LaMgMnCrO6,0.9613000000000005,0
mp-765723,Na3Li6Mn5O9,0.0,0
mp-631506,SrZrCo,0.0,0
mp-4903,Tm(CuSi)2,0.0,0
mp-767873,V9Sb7O32,0.6117999999999997,0
mp-774420,Fe2Ni(PO4)3,0.0,0
mp-753755,Bi3O4F,2.1424999999999996,0
mp-504482,AlInS3,2.3613999999999997,0
mp-754514,N2,0.0,0
mp-975337,RbF3,0.0,0
mp-568456,Tb2(GePt3)3,0.0,0
mp-669361,Cu2BiAsO6,0.0,0
mp-764346,Li2FeSiO4,2.9932,0
mp-542883,SrYbSi4N7,0.0,0
mp-971813,TmB4Ru,0.0,0
mp-636297,HfNiSn,0.0,0
mp-857354,LiSn3Sb(PO4)6,2.2990000000000004,0
mp-556950,ZnS,2.0322999999999998,0
mp-8276,Sr(ZnP)2,0.8239999999999994,0
mp-2501,BMo2,0.0,0
mp-697267,TlP(HO2)2,3.9699000000000004,0
mp-674395,Tl5SnF9,2.9199,0
mp-978268,MgZn,0.0,0
mp-4248,YCoC2,0.0,0
mp-1044202,CaFe2(PO5)2,0.0,0
mp-541720,Ba3DyRu2O9,0.0,0
mp-1045362,Y(CrS2)2,0.0,0
mp-760994,NaSbO3,1.9295999999999998,0
mp-675254,AlPO4,5.353,0
mp-1042479,BaYCuWO5,0.0,0
mp-1030120,Te4MoW3Se4,0.2556999999999996,0
mp-570268,MnSbSe2I,0.532,0
mp-767601,Li6Mn2O5F2,0.8859000000000001,0
mp-720376,H4SeO5,3.5177,0
mp-673700,Nb2Sb,0.0,0
mp-2833,IrS2,0.5311999999999992,0
mp-21171,MnGaCo2,0.0,0
mp-32393,Ni2P5O16,0.02250000000000002,0
mp-4938,ScCo3B2,0.0,0
mp-769153,Li2SbSO4F3,4.3691,0
mp-22858,TlI,2.1452,0
mp-5429,Tb(SiOs)2,0.0,0
mp-643370,Ba2MgH6,2.8864,0
mp-22002,Sm3Co6Sn5,0.0,0
mp-675180,ErCuSe2,1.0495999999999999,0
mp-775755,Li4Ti3Ni3(SbO8)2,1.0106000000000002,0
mp-972861,Sc2TlTc,0.0,0
mp-561244,AsCSCl2F9,3.8103,0
mp-673059,LiSbP2O7,3.933,0
mp-4860,Gd2CuO4,0.0,0
mp-30852,TiPt8,0.0,0
mp-23572,KBiP2S7,2.4445000000000006,0
mp-631427,CuIrBr,0.0,0
mp-755404,Gd3SbO7,2.4773,0
mp-14448,Ba2SiTe4,1.1018,0
mp-29051,WS9Cl4,1.2564,0
mp-7921,MgPdF6,1.8285,0
mp-774353,Li3Ti(NiO3)2,0.0,0
mp-20396,RbCa2Nb3O10,1.4813999999999998,0
mp-23450,RbIO4,2.494,0
mp-20553,GdMnSi,0.0,0
mp-1045492,Y(MnS2)2,0.0,0
mp-998947,TiRu3,0.0,0
mp-1027480,TeMoWSeS2,0.0,0
mp-1047561,Ca3Sn3(AsO4)4,2.5585999999999998,0
mp-3179,Tb3(CuSi)4,0.0,0
mp-735563,CsCoH18N6(ClO2)4,0.0,0
mp-15778,MgNiSb,0.0,0
mp-11156,TmMgGa,0.0,0
mp-558645,PBr3O,3.0735,0
mp-28211,IrS3Cl11,1.8442,0
mp-975780,Li2TlSn,0.0,0
mp-720643,K2ZrSi3(HO5)2,4.9328,0
mp-626222,H5ClO6,4.5672999999999995,0
mp-1029677,In2(CN2)3,2.1510000000000002,0
mp-32586,Nd2S3,1.7865000000000002,0
mp-985286,Ac2Mg,0.0,0
mp-23846,KHF2,6.9611,0
mp-31349,Sr3In,0.0,0
mp-8597,ScB2C,0.0,0
mp-31251,Ga(SbCl)4,2.0139,0
mp-3598,BaRuO3,0.0,0
mp-774258,Ti5Nb(PO4)6,0.006299999999999528,0
mp-18156,KBaPSe4,1.2588000000000001,0
mp-16483,BaAl9Fe2,0.0,0
mp-1425,TiCr2,0.0,0
mp-27779,Hg(Mo3Cl7)2,1.7411000000000003,0
mp-983586,Ac2SiHg,0.0,0
mp-20552,Cr2As,0.0,0
mp-1047458,Ca(WO2)2,1.5477999999999996,0
mp-2235,YbRh2,0.0,0
mp-6744,K2Fe(PS3)2,0.21560000000000024,0
mp-556522,K3Cu2(BiS2)5,0.5758000000000001,0
mp-9899,BaAgP,0.12489999999999979,0
mp-8300,Ba4As2O,0.6692999999999998,0
mp-643712,Rb3MgH5,3.0454999999999997,0
mp-8570,Ba3Zr2S7,0.8273999999999999,0
mp-8956,Ho2S3,0.6113999999999997,0
mp-769612,Li6Mn3P6WO24,0.6901000000000002,0
mp-756190,Cd(GaO2)2,1.2302,0
mp-695295,H22RuN7(ClO2)4,0.8401,0
mp-1479,BP,1.2435,0
mp-976968,NaPdO3,0.0,0
mp-560638,Na2U2Si(O4F)2,2.0782999999999996,0
mp-1013529,Sr3N2,0.0,0
mp-779599,DyTiO3,0.0,0
mp-543051,Lu5Sb3,0.0,0
mp-1014265,Zr2N,0.0,0
mp-1029408,Mg2NbN3,2.6628000000000003,0
mp-983236,Pm2ZnOs,0.0,0
mp-573697,CsCl,4.8492,0
mp-630303,RhC2IO2,1.7793,0
mp-505164,NbTe4Ir,0.0,0
mp-20750,Tb3SnC,0.0,0
mp-636095,Zr3Cd2,0.0,0
mp-1030158,Te4MoW3Se4,0.07739999999999991,0
mp-14216,Ga8(Pb3O7)3,2.697,0
mp-782649,Na4Mn2P(CO4)4,0.0,0
mp-989561,NaTl2GaF6,4.3908,0
mp-13072,PrGe3Rh,0.0,0
mp-557359,Cs2Al2Sb2O7,3.6378000000000004,0
mp-632326,HCl,5.8162,0
mp-541300,CoH4SeO5,2.7463,0
mp-607291,Cu3BiS3,0.7058,0
mp-743965,SiH12N2(O2F3)2,0.5504,0
mp-1020634,SrMgB2O5,4.6961,0
mp-1041391,Mg(WO2)2,0.6503000000000005,0
mp-1018755,LaTlZn,0.0,0
mp-770886,Li3FeO3,1.9602,0
mp-9481,TcS2,1.1885000000000003,0
mp-2180,HfSb2,0.0,0
mp-3540,Li2SnO3,3.125,0
mp-1042106,CoS2,0.0,0
mp-6755,KSn4(PO4)3,3.7642999999999995,0
mp-8845,SeS2(NO)2,1.9484,0
mp-28568,Rb3CuO2,1.4327,0
mp-567573,Rb2UBr6,0.0,0
mp-555911,TlAsF6,4.6463,0
mp-1046012,CaSnO2,1.6462000000000003,0
mp-8136,ThSO,1.1139999999999999,0
mp-1048199,BaTi4O7,0.0,0
mp-976830,Ni3Pb,0.0,0
mp-667314,Ba9(TaN6)2,1.2429000000000001,0
mp-775442,Li4V3Ni3(SnO8)2,0.1318999999999999,0
mp-6958,TlSb,0.0,0
mp-600172,CuH12C5S4N,1.1785,0
mp-556588,SiO2,4.0078000000000005,0
mp-570566,Rb5Ta(TlAs2)2,1.4405000000000001,0
mp-765521,LiVOF3,2.1107,0
mp-15559,KSb5S8,1.5628999999999995,0
mp-684890,Tb4F15,0.0,0
mp-865527,YAl3,0.0,0
mp-3479,CaAl9Ni,0.0,0
mp-505319,PtF6,0.0,0
mp-776761,LiCr(SO4)2,2.1597,0
mp-2695,Sb2Os,0.34339999999999904,0
mp-706229,Ba2La2Fe2Cu2O11,0.0,0
mp-12753,GdAl,0.0,0
mp-777677,LiFeF4,3.0836,0
mp-772305,Y2Bi2O7,0.0,0
mp-555904,NaSmGeO4,3.5475999999999996,0
mp-463,KF,5.9956,0
mp-976257,KTi5Se8,0.0,0
mp-768507,Cu2(SO4)3,0.33430000000000004,0
mp-867868,Sm2AgIr,0.0,0
mp-769659,Li2TiFeO4,0.0,0
mp-531792,LuZr3F15,5.5183,0
mp-770175,Li2Mn3FeO8,0.0,0
mp-976260,LiTm2Au,0.0,0
mp-779091,LiFe4(BO3)4,1.173,0
mp-3154,Sm3Sb5O12,3.1334,0
mp-35078,BaMnO3,0.6737000000000002,0
mp-696138,Li10Ge(PS6)2,2.3653,0
mp-541193,Hg7Cl2O3,0.9253,0
mp-696193,NiH2(SN)4,0.9638999999999998,0
mp-974492,ReTc3,0.0,0
mp-408,Mg2Ge,0.16890000000000027,0
mp-698362,H22IrC3(N3O4)2,2.7618,0
mp-582295,La(FeP3)4,0.0,0
mp-1018701,EuSnHg,0.0,0
mp-1007694,SnPO4F,2.6443000000000003,0
mp-1041036,ZnMo2P2O9,1.1934,0
mp-972869,Sc2GaPt,0.0,0
mp-22851,NaCl,3.9736000000000002,0
mp-683906,Yb5Cu11Sn8,0.0,0
mp-684652,BeF2,6.800199999999999,0
mp-18027,BaC10,0.18229999999999968,0
mp-756909,TlGaO3,0.2334000000000005,0
mp-555848,H8C3S2,3.9735,0
mp-760170,Sn13(O5F3)2,2.0053,0
mp-8926,Li3BN2,3.4547999999999996,0
mp-1046206,SrZnSn(PO4)2,3.2386999999999997,0
mp-1047046,BaTl(MoO3)2,0.0,0
mp-861504,PrBO3,4.652,0
mp-27927,NbAlO4,3.3831999999999995,0
mp-865005,DyI3,2.1725000000000003,0
mp-559118,CsTa(PO4)2,3.3899999999999997,0
mp-971682,Si3N2,0.12220000000000031,0
mp-568961,Ba(FeAs)2,0.0,0
mp-8483,K2SO3,4.914899999999999,0
mp-555255,SbSNF5,2.2126,0
mp-569597,Np(FeSi)2,0.0,0
mp-620029,MoCl2,2.4547999999999996,0
mp-28798,Nb4Te12I,0.0,0
mp-662605,Na2Si4O9,4.4699,0
mp-28111,K3NO3,0.20179999999999998,0
mp-861182,Li4TiS4,2.4707,0
mp-560203,SiO2,5.4814,0
mp-779720,Li5LaO4,3.9705,0
mp-637575,AlCr3B4,0.0,0
mp-458,Ti2O3,0.0,0
mp-867626,Tl3Os3O10,0.0,0
mp-20777,SmCoGe,0.0,0
mp-651268,Fe2Cu6SnS8,0.0,0
mp-680210,Ba3WN4,1.5479000000000003,0
mp-978986,Sr(GePd)2,0.0,0
mp-773598,TiFe5(PO4)6,1.3659999999999999,0
mp-699606,Sb3WC6O6F17,2.888,0
mp-1043189,MgCo(GeO3)2,1.6486000000000005,0
mp-976380,Nd(NiSb)2,0.0,0
mp-4907,Na6Sn2S7,2.0846999999999998,0
mp-1043670,Zn(Ni2O3)2,0.0,0
mp-774193,La2WO6,3.6540000000000004,0
mp-29611,B5H8,5.4263,0
mp-8511,PF5,7.0881,0
mp-542638,K2Mn(PS3)2,1.0923000000000003,0
mp-555827,Sr2Cu(BiO3)2,0.0,0
mp-558375,Ce3CuSiS7,0.0,0
mp-1019801,K8PO3,0.0,0
mp-977555,MgNbRh2,0.0,0
mp-651707,SiO2,5.696,0
mp-1041093,Mg(WO2)2,0.7439,0
mp-625109,H5NO2,1.6920000000000002,0
mp-768678,LiSn2(SO4)3,0.18619999999999992,0
mp-653005,Ca2(Fe2O3)11,0.0,0
mp-1042176,YV(WO4)2,1.6793999999999998,0
mp-555965,Li2ZnSn3O8,1.9407,0
mp-675525,InGaSe2,0.0,0
mp-722890,Li3H6Ir,3.0495,0
mp-1046130,Ba2Tl2Zn2Cu3O10,0.0,0
mp-1020645,Na8NO3,0.0,0
mp-1025824,MoW2(SeS2)2,0.7531999999999996,0
mp-1013849,Li3Fe2(GeO4)3,0.0,0
mp-18575,Nb2Zn3O8,2.9667000000000003,0
mp-9996,SiP2,1.4173999999999998,0
mp-28808,TlReO4,3.3756,0
mp-703486,Mn(H2N)2,0.22640000000000005,0
mp-667320,SeCl4,2.855,0
mp-643101,Rb2H6Pt,4.0644,0
mp-1008559,BP,1.0757000000000003,0
mp-18718,Ca(NiO2)4,0.4838,0
mp-771078,Li3FeBO5,0.46430000000000005,0
mp-10250,BaLiF3,6.564299999999999,0
mp-10797,CaSiNi2,0.0,0
mp-975649,LiTm3,0.0,0
mp-19467,AgMo3P3O16,1.5694000000000001,0
mp-18759,Mn3O4,0.6925999999999997,0
mp-871,FeSi,0.18090000000000117,0
mp-27344,Be(BH4)2,6.1859,0
mp-22630,Sc2PbS4,1.6635,0
mp-1044403,BaZn(FeO2)4,1.5779000000000003,0
mp-542220,Cs3As,0.0,0
mp-12890,HfU3Sb5,0.0,0
mp-2436,EuZn5,0.0,0
mp-1796,Tl5Te3,0.0,0
mp-22596,Ni3(PbS)2,0.0,0
mp-1023227,CaHfMg6,0.0,0
mp-16503,HoAl2Ni,0.0,0
mp-943,Co3S4,0.0,0
mp-1029367,MnCoN2,0.0,0
mp-567584,Hf2Te,0.0,0
mp-6219,K3Co(CN)6,4.3253,0
mp-17552,CaSiO3,4.7326,0
mp-27865,KMgCl3,4.4851,0
mp-28072,La2Be2O5,3.9238,0
mp-753059,TiOF,0.0,0
mp-771191,Li5Co7O16,0.5879000000000001,0
mp-763362,LiMnF3,3.383,0
mp-10877,Ca(Al2Cu)4,0.0,0
mp-6985,Ti,0.0,0
mp-555510,Sr2YbRuO6,0.0,0
mp-29447,Bi3BrO4,2.3158,0
mp-980757,Sm5Sb3,0.0,0
mp-865665,TiReTc2,0.0,0
mp-5546,Cu8GeS6,0.5983,0
mp-2395,Sb3Rh,0.0,0
mp-763447,Li5Ti2Co5O12,0.5954999999999999,0
mp-21766,Ba(InSe2)2,1.687,0
mp-696998,K6BiH3(Cl2F)4,4.1881,0
mp-554854,CsLuP2O7,5.1874,0
mp-20362,Mn3NiN,0.0,0
mp-768268,Li14Co2S9,0.5308999999999999,0
mp-866538,Ca6Sn5S16,0.0,0
mp-1041164,CaTi3P3O13,0.0,0
mp-1025747,Te2MoW2(SeS)2,0.0,0
mp-769266,Ca3Ta2O8,4.1056,0
mp-1007768,ZnHCO4,0.0005999999999999339,0
mp-973126,ScBiPd2,0.0,0
mp-863062,LiSiBiO4,3.4051,0
mp-773044,LiCuO2,0.33030000000000004,0
mp-9177,Y2Al3Si2,0.0,0
mp-20304,RhN2,0.0,0
mp-606644,CuP10,1.0585000000000004,0
mp-19306,Fe3O4,0.0,0
mp-766341,NaSb5O13,0.7792000000000003,0
mp-554853,Na4Si3(SnO6)2,3.0661000000000005,0
mp-984745,CsSnO3,0.0,0
mp-753418,SrNd2O4,3.6022,0
mp-29242,Ba3PbO,0.0,0
mp-862937,PmMgZn2,0.0,0
mp-34202,Bi2Te3,0.5335999999999999,0
mp-569267,Ca2CdSb2,0.3210999999999995,0
mp-989563,Rb2NaTlCl6,1.8121,0
mp-559977,KNd(PO3)4,5.356,0
mp-29034,Tl2GeTe3,0.4684999999999997,0
mp-7889,Sr2YReO6,0.0,0
mp-686296,CaGd2Zr(GaO3)4,3.2017000000000007,0
mp-35417,Li3TaO4,1.5777,0
mp-28535,Ca2Se3O8,3.4251,0
mp-1030613,Te2MoWSe2,0.15009999999999968,0
mp-684710,Cu9S5,0.0,0
mp-686057,LiNbO3,3.0381,0
mp-974435,Re3N,0.0,0
mp-973156,ScAsO3,0.0,0
mp-6598,K2Cu(PO3)4,0.8983,0
mp-759793,LiTi2(PO4)3,2.6006,0
mp-372,VPt3,0.0,0
mp-776630,V2O3,0.9127999999999998,0
mp-541682,K3AlAs2,0.4517,0
mp-758020,LiCu3(CO3)3,0.0,0
mp-759838,NaSn2(PO4)3,3.2885999999999997,0
mp-972237,Tc3H,0.0,0
mp-861918,Sc2TlCd,0.0,0
mp-758780,LiBiP2O7,4.351100000000001,0
mp-4582,NdRhO3,0.6467999999999998,0
mp-709066,Rb4LiH3(SO4)4,5.0068,0
mp-570950,NaLi2N,0.0,0
mp-680646,NiSn,0.0,0
mp-2517,Ca2Si,0.2911999999999999,0
mp-756168,Li2Nb4O11,2.5366,0
mp-7170,UTeP,0.0,0
mp-32787,Ho2S3,1.9342000000000006,0
mp-972540,SmYZn2,0.0,0
mp-720644,PH9(NO2)2,4.8995,0
mp-1042815,Mg3Fe4(WO4)6,1.6917999999999997,0
mp-554869,SrGeO3,3.3373,0
mp-930,ZrP,0.0,0
mp-768347,Li8NbS6,0.0,0
mp-561476,PH8C2SNO2,4.5667,0
mp-754883,KHoO2,3.9758,0
mp-11959,CaSn2Rh,0.0,0
mp-23672,PH6NO4,5.506399999999999,0
mp-684605,Cu17Se10,0.0,0
mp-7786,CsCu3S2,1.6845999999999999,0
mp-7112,Sr2Cu3(SO)2,0.0,0
mp-571452,KPSe3,1.3151,0
mp-756755,Li3Nb3TeO12,2.1154,0
mp-1029062,MoW3(SeS)4,0.5837000000000003,0
mp-626230,Ca(H8O5)2,3.9044,0
mp-31232,In2PO5,2.111999999999999,0
mp-771908,LiFePO4F,2.4041,0
mp-1008506,BaGaSiH,0.47920000000000007,0
mp-559044,CuCSN,2.0694999999999997,0
mp-765584,Sb(PO3)4,0.11949999999999994,0
mp-572741,CsUP3O11,2.3440000000000003,0
mp-978569,Sm(BRh)4,0.0,0
mp-556228,Na5Ca4P4O16F,4.7165,0
mp-1046653,Ca4Cr5(TeO6)3,0.9722,0
mp-1041279,CaCu2(SnO4)2,0.5743,0
mp-1048245,MgVP2O7,2.801,0
mp-559716,FeS4N4Cl5,1.0118,0
mp-778458,Li3Cu2(SO4)3,0.0,0
mp-19320,K2FeO4,1.5215,0
mp-1045680,CaCu(PO3)4,0.1512,0
mp-1009792,RuC,0.6642000000000001,0
mp-755184,Sm2Se2O,1.6796999999999995,0
mp-20895,NpAs,0.0,0
mp-12983,ScSb,0.0,0
mp-4321,MgSiO3,4.5304,0
mp-3208,ZrGeTe,0.0,0
mp-6097,Li3Al(BO3)2,4.8248,0
mp-1023924,MoS2,1.6582,0
mp-10635,SnSb,0.0,0
mp-6841,Ba4NaCu(CO5)2,1.0292,0
mp-1046101,Mg2Ta2MnO8,3.3012999999999995,0
mp-554614,Cu3(AsO4)2,0.0,0
mp-672950,Sb(PO3)4,0.026699999999999946,0
mp-504826,S2N2O,1.9159999999999997,0
mp-696166,CaH4(ClO)2,5.2817,0
mp-30904,Ba3(CrS3)2,0.6307999999999998,0
mp-971673,BiS2,1.0690999999999997,0
mp-777909,Li2Cr2(PO4)3,0.0,0
mp-23777,H8C3SN(OF)3,5.8094,0
mp-22707,EuAgSb,0.0,0
mp-24172,H2SO4,6.027,0
mp-778071,BaYF5,6.5296,0
mp-4066,KGaO2,3.0499,0
mp-12693,Mg2Rh,0.0,0
mp-773507,MnNi(PO4)2,0.0,0
mp-999083,Ti2MnSn,0.0,0
mp-1029309,Na2HfN2,0.0,0
mp-29862,SnBr2,2.5388,0
mp-37255,Na2RuO3,0.0,0
mp-765486,PrAl22O34,0.0,0
mp-768020,Li2MnSiO4,2.8232,0
mp-754524,CeTiO3,0.0,0
mp-561412,CaCO3,4.9539,0
mp-28517,Tl6SeI4,1.6895000000000002,0
mp-567744,SrBr2,4.4697000000000005,0
mp-777010,Li4Ti3V3(CoO8)2,1.202,0
mp-977364,HoPaOs2,0.0,0
mp-16625,YbAl7Au3,0.0,0
mp-1029143,Te6Mo3WSe2,0.009299999999999642,0
mp-762632,LiFeSiO4,3.0239,0
mp-7880,Sr(SiAg)2,0.0,0
mp-8222,AgO,0.0,0
mp-549389,Li4CO4,5.9251000000000005,0
mp-1111,Mn5Si3,0.0,0
mp-405,Ga2Pd5,0.0,0
mp-12381,PrSnRh,0.0,0
mp-545479,B4CCl6O,4.0675,0
mp-5493,PrSi2Ni,0.0,0
mp-867285,LiTb2Ir,0.0,0
mp-568056,LaCo9Si4,0.0,0
mp-29007,P4(SO2)3,4.1226,0
mp-6909,BaPrO3,0.0,0
mp-1048515,BaW4O7,0.0,0
mp-721084,H7IN2,3.6926,0
mp-568993,Pr(NiAs)2,0.0,0
mp-8873,LiGeBO4,4.526400000000001,0
mp-27540,Al(HO)3,4.9963,0
mp-773906,KNaZrSi3H4O11,4.920400000000001,0
mp-27888,Zr3GeO8,3.8969,0
mp-604884,BN,4.4189,0
mp-865269,TmCuPbSe3,1.1212,0
mp-20169,Ce2O3,0.0,0
mp-689963,CrPO4,2.0446,0
mp-867900,DyCdRh2,0.0,0
mp-40286,NaLiLa2Ti4O12,1.6749,0
mp-774423,V3Cu(PO4)6,0.5346,0
mp-643451,BaMg2H8Ru,1.9106999999999998,0
mp-600002,SiO2,5.4577,0
mp-4574,YbTaO4,0.0,0
mp-1932,Nb3Os,0.0,0
mp-765712,Li4FeNi3O8,0.0,0
mp-580999,Ga2NiCl8,0.5238,0
mp-642535,Cs4Sb14S23,1.3732999999999995,0
mp-21651,Ce5Ge2Ru,0.0,0
mp-780535,BaLu2O4,2.9254,0
mp-766359,BaCaI4,3.4196000000000004,0
mp-780880,Rb2CoO3,0.4884,0
mp-780108,Co2O3F,0.0,0
mp-8452,NaLiS,2.2642,0
mp-773136,LiCu2PO4,0.6086,0
mp-973166,NaCd3,0.0,0
mp-676414,Al4CO,0.0,0
mp-3433,YMgNi4,0.0,0
mp-11352,PrAl5Ni2,0.0,0
mp-19970,Li3CuO3,1.1780000000000002,0
mp-16794,Sc2Re3Si4,0.0,0
mp-540805,Ba2GeS4,2.2853,0
mp-864972,Mg2PdAu,0.0,0
mp-14607,KSbO3,1.7858999999999998,0
mp-608439,Pb2O3,1.0516000000000005,0
mp-12307,Tl2Ge2S5,2.0942,0
mp-13480,Cu3N,0.0,0
mp-7159,La3TlC,0.0,0
mp-767706,LiV2F7,2.0983,0
mp-557809,SbSCl9,1.7553999999999998,0
mp-689979,LiFeP2O7,1.2115,0
mp-754545,NdO,0.0,0
mp-7226,V3Ni,0.0,0
mp-684668,CaC2,2.8514,0
mp-763524,LiFe2(CO3)4,0.0,0
mp-977188,Li3Dy,0.0,0
mp-675506,Nb6(Pb2O5)5,0.3586999999999998,0
mp-505465,As2Pb2O5,2.9362000000000004,0
mp-1042794,MoAs2O7,2.997,0
mp-690702,SnPHO4,3.3978,0
mp-677015,Na3Sm17Si12(O25F)2,4.656700000000001,0
mp-13094,YAl2Ni,0.0,0
mp-1049231,LaMnZnCrO6,0.8968000000000007,0
mp-769321,ZnSeO4,1.7134999999999998,0
mp-15059,GdSnF7,4.4455,0
mp-22827,Er15C19,0.0,0
mp-557414,BaSi6N8O,4.2279,0
mp-649619,As3Pb5ClO9,2.0202,0
mp-605196,CsCu3As8H24C8(IO2)4,2.5000999999999998,0
mp-675252,Yb2MnS4,0.0,0
mp-2578,NiTe2,0.0,0
mp-540591,Na2FeH4C5(N2O)3,2.7695999999999996,0
mp-556151,H9C3N3O2,4.8956,0
mp-505527,Ti5Si4,0.0,0
mp-573855,La7Ni3,0.0,0
mp-2789,NO2,2.8133999999999997,0
mp-29554,WBr5,0.0,0
mp-675419,LiPrS2,1.9663,0
mp-1042832,Zn2Cr3O8,0.6479000000000001,0
mp-570009,Np(MnSi)2,0.0,0
mp-14985,KZrPdF7,0.6681,0
mp-755559,LiNbO3,3.456,0
mp-43094,Ca3Ti2AlSi3O14F,3.0113000000000003,0
mp-1035249,Mg14CuSiO16,0.0,0
mp-775485,Bi3PO7,2.3797,0
mp-12814,Ba3SbN,0.7075,0
mp-23199,BaCl2,5.1132,0
mp-755481,Ca(ClO3)2,4.801500000000001,0
mp-752432,Gd3NbO7,2.3855999999999997,0
mp-1027576,TeMo2Se2S,0.0,0
mp-29975,K3BS3,2.7148,0
mp-10343,Sc2BC2,0.0,0
mp-680183,Te5As2Br4O5F26,2.1235999999999997,0
mp-640889,Tm(CuTe)3,0.3841000000000001,0
mp-5739,U2SN2,0.0,0
mp-761932,Fe3Co3(TeO8)2,0.0,0
mp-961659,TiSiPd,0.7690000000000001,0
mp-972063,YbGe3,0.0,0
mp-13695,SmCuO2,2.502,0
mp-769211,Tb2Pb2O7,0.9557000000000002,0
mp-10287,RbMnTe2,0.0,0
mp-696420,ZnH8C2(SN3)2,4.2828,0
mp-558199,CuAs4S3Cl,1.6216999999999997,0
mp-541083,KPH5C2S2(NO)3,3.4045,0
mp-770824,Nb2P4H3O16,0.0,0
mp-706809,Ca2Al11Si13Ag7O48,1.7357,0
mp-756750,Dy2TiO5,3.0481,0
mp-973779,Nd2CdHg,0.0,0
mp-17599,CaCu3(GeO3)4,0.7027999999999999,0
mp-29941,Sc2C,0.0,0
mp-1025629,Te6Mo2W,0.5741,0
mp-557126,NaPr(Si3O7)2,4.789,0
mp-1027337,Te2Mo3W(Se2S)2,0.0,0
mp-2920,LaAlO3,4.0189,0
mp-863679,ErTaRu2,0.0,0
mp-971702,YbNdCd2,0.0,0
mp-706594,U2H14S2O19,2.1173,0
mp-769493,Na3Ni2P2(CO7)2,0.0,0
mp-776370,Ag3IrO4,0.0,0
mp-913,CdP2,1.4533,0
mp-569788,LiZnGe,0.0,0
mp-1041240,Sb3P3O13,0.9878,0
mp-570042,PrAlPt,0.0,0
mp-1043439,YRe(WO4)2,0.0,0