mp_id,formula,band_gap,fidelity
mp-865500,Na2Hf2O5,1.9558,0
mp-8673,Li2SnTeO6,2.0439000000000003,0
mp-21169,Ce2NiB10,0.0,0
mp-5481,Na6CoS4,0.42700000000000005,0
mp-989565,Rb2TlGaF6,4.4008,0
mp-1027155,Te2MoW3(SeS2)2,0.0,0
mp-24286,ZrH2,0.0,0
mp-679944,Li4Re6S11,1.5798,0
mp-39823,Na8Al6Si6CO27,3.2507,0
mp-1045123,Y(CoO2)3,0.6261999999999999,0
mp-555541,KC(NO2)2,1.9925,0
mp-12636,PRu,0.0,0
mp-28589,Rb3Ge2Br7,2.8982,0
mp-2084,Si5Ir3,0.9666999999999994,0
mp-631451,Ta2CdBi,0.0,0
mp-2289,CeAl4,0.0,0
mp-27180,NdSBr,2.6374999999999993,0
mp-1047532,YTi(WO4)2,1.1366,0
mp-556880,SiO2,5.020300000000001,0
mp-571181,RbAuN12,1.4603,0
mp-11397,Ga3Ni2,0.0,0
mp-975609,Li2TlPb,0.0,0
mp-12794,Al2Cu,0.0,0
mp-2199,Fe3Si,0.0,0
mp-622199,KCuP2Se5,1.2294,0
mp-8752,Na4CdP2,0.7385000000000002,0
mp-768355,BaYF5,6.895099999999999,0
mp-866126,DyNbRu2,0.0,0
mp-24354,H7Se2NO6,4.2222,0
mp-558026,SbSe(IF2)3,1.4032,0
mp-23399,Rb2AgI3,2.5761000000000003,0
mp-10776,K2Sn(AsS3)2,1.0089000000000001,0
mp-1708,YTe,0.0,0
mp-19077,CrAsO4,1.9798,0
mp-541538,K2CdSiO4,2.6403,0
mp-18232,Ce2Al3Ge4,0.0,0
mp-505528,Nb3P,0.0,0
mp-560595,Ca2AsClO4,3.795,0
mp-558501,KBi6IO9,2.2881000000000005,0
mp-1019719,CsSi2BO6,5.258900000000001,0
mp-759717,Li2Cu3F8,0.0,0
mp-645953,Fe5Te6(ClO9)2,0.027499999999999858,0
mp-989695,Cu,0.0,0
mp-530984,Al22PbO34,3.595,0
mp-41701,LiCo2P4H3O14,2.7545,0
mp-866613,CsNa2Be6(BO3)5,4.5079,0
mp-504946,Nb2P4O15,3.2843,0
mp-1092,HoHg,0.0,0
mp-28107,Na4Ge2Te5,0.9849999999999999,0
mp-976356,NdSc3,0.0,0
mp-1006351,CeY3,0.0,0
mp-604694,FeP3(HO2)6,2.7058,0
mp-1043879,ZnBi3O7,0.0,0
mp-6300,RbHgSbSe3,1.0702,0
mp-775194,Li2Fe3WO8,1.2702999999999998,0
mp-9650,MgTa2O6,2.8397,0
mp-972224,TaGeRh,0.0,0
mp-1042016,CaNiP2O7,3.3768,0
mp-756459,Cs3TmO3,2.3148,0
mp-20685,Cr3Ge,0.0,0
mp-772797,Ti2Cu(PO4)3,0.5653999999999999,0
mp-643446,Ca2AlH8S2Cl(O6F)2,5.5831,0
mp-569748,ThFe2SiC,0.0,0
mp-778791,Fe4OF7,1.3306000000000002,0
mp-653838,ZrFe12Si2B,0.0,0
mp-766175,RbInBP2HO9,4.0389,0
mp-28801,La5Ti4O15,0.0,0
mp-1009651,CaHg2,0.0,0
mp-863358,KAl11O17,4.674899999999999,0
mp-20114,TmMnGe,0.0,0
mp-8949,NdAsPd,0.0,0
mp-640058,PbI2,2.4017,0
mp-1025917,MoW2(SeS2)2,0.6113000000000004,0
mp-10240,ScNiP,0.0,0
mp-9361,RbLaS2,2.6856999999999998,0
mp-30347,ScInAg2,0.0,0
mp-975055,Rb3Ac,0.0,0
mp-1030286,Te2MoWS2,0.0,0
mp-27173,P4Ru,1.2576999999999998,0
mp-973869,LaCdO3,0.0,0
mp-997108,RbAgO2,1.1682000000000001,0
mp-568501,SrCdBi2,0.0,0
mp-7228,ReO2,0.0,0
mp-510657,VCu3O4,0.10090000000000021,0
mp-23171,PrBi,0.0,0
mp-1020163,Na3Li2Al(SiO4)2,4.051,0
mp-772242,LiVPO5,3.1420000000000003,0
mp-19087,Na3Co2SbO6,1.9080000000000004,0
mp-556229,Li2MnF5,1.8414,0
mp-704206,Fe9(PO4)8,1.6058000000000001,0
mp-1001787,LiRh3,0.0,0
mp-643108,Yb4Mg3H14,3.0929,0
mp-647366,KICl4,2.2151,0
mp-542445,K2PaF7,3.9802999999999997,0
mp-8846,Ba3Nb5O15,0.0,0
mp-544,Ti3Ir,0.0,0
mp-979425,YHoAg2,0.0,0
mp-699403,BaLa3TiCr3O12,1.8926999999999996,0
mp-1002206,SiC,0.0,0
mp-763535,LiP5W3O19,0.9576000000000002,0
mp-769579,KFePCO7,0.0011999999999999789,0
mp-570673,ScNi5,0.0,0
mp-975050,Rb3Co,0.0,0
mp-568607,Al5Mo,0.0,0
mp-505391,Li6CoCl8,0.32289999999999996,0
mp-38802,Ga2CoO4,0.9615,0
mp-695955,P3H11N4O9,5.1567,0
mp-505421,Mn2CuO4,0.0,0
mp-559352,Ba4Na(BiO4)3,0.2658999999999998,0
mp-1047859,BaMgCrF7,3.9409,0
mp-30250,YAgO2,2.4154,0
mp-7289,K2Te3,0.5694000000000004,0
mp-570691,Ti3Sn,0.0,0
mp-1020123,MgSiO3,4.411099999999999,0
mp-10293,BaC2,2.1132,0
mp-630336,AuCl5O18,0.0043999999999999595,0
mp-556137,Li2Ca4Si4O13,4.456,0
mp-704203,Li2VP4O13,1.8286,0
mp-10838,NaYb(PS3)2,1.696,0
mp-640553,BaNb2O6,1.7859,0
mp-779086,LiCr(PO3)4,2.8150999999999997,0
mp-568630,LuRu2,0.0,0
mp-999501,Na,0.0,0
mp-30068,CIN,4.3987,0
mp-541656,AuCl2,0.8978999999999999,0
mp-1041621,Ca(CoO2)2,0.3870999999999998,0
mp-768082,Na5Ni2P2(CO7)2,0.0,0
mp-18042,SrTb2O4,3.6621999999999995,0
mp-570137,SnH16C4(Br3N)2,1.7128,0
mp-1047395,Mg(AgO2)2,0.0,0
mp-31554,Co3(PO4)4,0.008,0
mp-767518,Na2ScPCO7,4.351,0
mp-1027169,Te4MoW3S4,0.030200000000000227,0
mp-7581,MoSe2,1.3611,0
mp-20072,LaCuO2,2.5161999999999995,0
mp-15624,Sr2Sb,0.0,0
mp-22551,UP2(PbO5)2,1.7665999999999995,0
mp-781710,NbNO,1.3512000000000004,0
mp-989512,LiTl2InCl6,2.8728000000000002,0
mp-28274,Ba3In2F12,4.5144,0
mp-866191,Li2YbSi,0.0,0
mp-1048165,BaBi4O7,2.0387000000000004,0
mp-1014286,C3N,0.0,0
mp-8936,SnSe,0.8548999999999999,0
mp-753813,Ca(ClO3)2,5.0397,0
mp-24657,ZnBP2H4NO8,4.8340000000000005,0
mp-12510,LaSnPd,0.0,0
mp-772578,Li2Mn3SnO8,0.7262000000000004,0
mp-758324,Ti5Nb2O14,0.0,0
mp-1018942,PrTlCd,0.0,0
mp-1018020,NiAgSe2,0.0,0
mp-504,CuS,0.0,0
mp-28286,Na3Sb5F18,4.3786,0
mp-1018674,DyAlZn,0.0,0
mp-770553,Li2AlCoO4,1.6087,0
mp-561446,BaCa(GaO2)4,3.0641999999999996,0
mp-17836,BaNd2BeO5,3.8754999999999997,0
mp-8923,Sr2LiFe2N3,0.0,0
mp-23363,NaAlCl4,5.1556999999999995,0
mp-757053,LiNb(PO3)4,0.2745999999999995,0
mp-705024,VP2O7,1.3524,0
mp-976581,Nd3I,0.0,0
mp-781606,Fe4O5F3,0.0,0
mp-16734,SmNiAs,0.0,0
mp-676241,FeCl3,0.8119000000000001,0
mp-17064,Gd2Sn2O7,2.6233999999999997,0
mp-772665,BeCrO4,2.2720000000000002,0
mp-1047643,CrO2,0.0,0
mp-622278,TlV2SbO8,2.7329,0
mp-18899,Nd2MnNiO6,1.5317000000000003,0
mp-20087,Sr2SmTa(CuO4)2,0.0,0
mp-504554,Ba5Ta4O15,3.0865,0
mp-981210,Tl3V,0.0,0
mp-11140,Ho2Sb5,0.0,0
mp-626073,Al(HO)3,4.574,0
mp-6954,SrAgAs,0.0,0
mp-627123,Si2H2O3,1.6023999999999998,0
mp-674645,Na3Nd5Cl15,0.0,0
mp-27486,BN3Cl2,3.2518000000000002,0
mp-573084,Yb2S3,1.1047000000000002,0
mp-770735,ZnCrO4,2.2854,0
mp-677422,Ca2Ga2Si(HO4)2,3.5092,0
mp-1028592,Te3MoWSe,0.0005999999999999339,0
mp-542100,K4Nb2Si8O23,3.7939999999999996,0
mp-10996,Yb(MgSb)2,0.6840000000000002,0
mp-29196,AuCN,1.8408,0
mp-32857,Cu13Se8,0.0,0
mp-672345,Cu4W(SCl)4,0.0,0
mp-690653,NaH3CN4O,4.8789,0
mp-1041583,MgV2O4,1.3749000000000002,0
mp-28477,Sr(ClO3)2,5.224,0
mp-631518,ZrBTe,0.0,0
mp-23184,BCl3,4.7135,0
mp-23089,SrTa2Bi2O9,2.4928,0
mp-673763,Li3YbCl6,0.5603,0
mp-11906,LiPr2IrO6,0.0,0
mp-864907,MgZrPd2,0.0,0
mp-674456,Zr10HN8,0.0,0
mp-29778,Nd4Ge7,0.0,0
mp-9490,KAg2SbS4,0.5695999999999999,0
mp-795621,Ca2CrO8,0.4243999999999999,0
mp-697135,H2S,3.5201,0
mp-862983,InCl3,3.0122,0
mp-974315,RuI,0.0,0
mp-23563,SiCl2O,5.5534,0
mp-2168,SnSe,0.7042999999999999,0
mp-560233,Sr5B3BrO9,3.8991,0
mp-23691,Tl(BH)6,4.526999999999999,0
mp-1047848,BaMgMoF7,4.7417,0
mp-863362,LiTa3O8,2.4137999999999997,0
mp-2418,PdSe2,0.5105,0
mp-333,HfFe2,0.0,0
mp-997089,NaAuO2,1.1413,0
mp-755594,ZnReO4,0.0,0
mp-1018031,KInO2,2.0788999999999995,0
mp-22225,CeSiBO5,0.17140000000000022,0
mp-14825,Sr2ErCu3(PbO4)2,0.0,0
mp-18712,Mg3Pd,0.0,0
mp-574529,Al(SeCl2)2,1.3809,0
mp-24342,LiBeH3,2.3768000000000002,0
mp-8177,HgF2,0.9684,0
mp-776763,Ti3(WO6)2,2.5978,0
mp-1046497,Mg4Co5(TeO6)3,1.4281999999999995,0
mp-769014,Ho2(SeO3)3,3.9351,0
mp-999293,PdN,0.0,0
mp-973613,LiCeO3,0.0,0
mp-605252,DyGaCo,0.0,0
mp-28941,HfAg2S3,1.1128000000000005,0
mp-2562,MnS,0.0,0
mp-3486,KSnSb,0.26460000000000017,0
mp-755391,BaNa2O2,1.5152,0
mp-768947,Li10Zn3(GeO4)4,3.1107,0
mp-571069,Ba3(CdSb2)2,0.0,0
mp-35040,LiMg9B20,0.0,0
mp-558071,RbS,1.6972000000000003,0
mp-643052,CuH6(NO)4,0.18490000000000006,0
mp-7592,AgF,0.0,0
mp-720397,H18RuN5(ClO)2,1.2495,0
mp-758223,Bi11PO20,0.0,0
mp-1019603,Cs2BaP2O7,4.6544,0
mp-757127,LiSi3BiO8,3.0538000000000003,0
mp-561511,FeAsS,0.7273999999999994,0
mp-863018,SiH9C3Cl,5.764200000000001,0
mp-1046180,SrTi(PO4)2,2.3476,0
mp-14294,Ba2YbSbO6,0.0,0
mp-556808,RbNb(BO3)2,3.3773,0
mp-770739,LiTiFeO4,2.1957000000000004,0
mp-27535,Ca(IO3)2,3.5813000000000006,0
mp-757047,LiSn(PO3)4,0.0,0
mp-20623,K2Cd(CN)4,6.000500000000001,0
mp-505767,K2NaInSb2,0.5808,0
mp-505310,Sr3Fe2Cu2S2O5,0.5308999999999999,0
mp-859126,Ba3CaI8,2.949,0
mp-973544,Lu2BeOs,0.0,0
mp-971768,Ti3Br,0.0,0
mp-1002165,GeC,0.0,0
mp-763317,LiVGeO5,1.9325,0
mp-687090,Hf(MoO4)2,3.2774,0
mp-753663,BaYBr5,3.6748000000000003,0
mp-19105,Na3MoNO3,3.5654,0
mp-1013525,VS2,0.0,0
mp-20519,CdInS2,0.0,0
mp-1044873,Bi2P2O9,0.0,0
mp-3564,BaSc2O4,3.8718,0
mp-757276,Li3Ti2(PO4)3,0.0,0
mp-764098,Li2Ni3TeO8,0.0,0
mp-757574,Ba8In8O19,1.3122000000000003,0
mp-1044419,CaBiWO5,1.7759,0
mp-572543,CsPr(PO3)4,5.4728,0
mp-1029121,Te2MoWSeS,0.0,0
mp-541204,As2S3(NF6)2,2.2041,0
mp-650816,La5V3S6O7,1.0339,0
mp-979984,YbP3,0.0,0
mp-662551,TlNO3,0.0,0
mp-12271,MgSeO3,4.0013,0
mp-570046,Sr3MoN4,2.0096000000000003,0
mp-561490,PdSeO4,1.2024000000000001,0
mp-30767,Li7Sn2,0.0,0
mp-697734,MoP4O13,1.1881,0
mp-29044,Cd4Sb2I3,1.1297000000000001,0
mp-30443,Be17Ru3,0.0,0
mp-776686,Li5Fe3Ni2(PO4)6,2.3929,0
mp-541913,FeHgC4(SN)4,0.0,0
mp-19384,Ni(AsO3)2,2.2402,0
mp-16136,Sr3TaGa3(SiO7)2,3.8521,0
mp-707334,K7P6H2NO22,3.6047000000000002,0
mp-631308,SnIrSe2,0.0,0
mp-561598,BaPbO3,0.0,0
mp-755084,Na6MgO4,1.9733999999999998,0
mp-631425,FeTc2Cl,0.0,0
mp-413,UP2,0.0,0
mp-1009020,KCuO,0.0,0
mp-6511,KCSN,4.1109,0
mp-977565,NdBiAu2,0.0,0
mp-759360,LiBi(PO3)4,3.2667,0
mp-774473,LiNbCuO4,0.0,0
mp-753798,Rb2SnO3,2.1212999999999997,0
mp-619206,SrCa2In2Ge,0.0,0
mp-3821,K2PtF6,2.5717,0
mp-7392,Na2AgSb,0.6588000000000003,0
mp-568606,CsErTa6Cl18,1.3425000000000002,0
mp-972966,Sc2OsAu,0.0,0
mp-17685,Li3GaGeO5,3.2656,0
mp-13536,TbZnNi,0.0,0
mp-4200,ScPO4,4.5188999999999995,0
mp-28160,Ca3C3Cl2,1.2768000000000002,0
mp-998194,RbInBr3,0.0,0
mp-675892,Yb(SbTe2)2,0.5893000000000006,0
mp-561194,La10S14O,1.9410999999999996,0
mp-1029269,Zn2MoN3,0.0,0
mp-33746,SrCO3,4.2741,0
mp-569221,Sm(C2N3)3,3.5748,0
mp-21214,PbSe,0.0,0
mp-762307,Y7HoO12,4.0494,0
mp-39689,CaLaMn2O6,0.0,0
mp-770078,LiMnPCO7,0.9307,0
mp-29251,Te6Br2O11,2.5231000000000003,0
mp-675128,Sc4Ti3O12,2.7582000000000004,0
mp-12177,Te2O5,1.6728999999999998,0
mp-560381,RbIn3F10,3.4383,0
mp-20095,Eu(FeP)2,0.0,0
mp-1048242,AlBi3Se2ClO8,0.0,0
mp-676581,Ag2CO3,0.5938000000000001,0
mp-28693,Al3Te3I,1.9650999999999996,0
mp-1963,NbRh,0.0,0
mp-632532,Yb2S3,1.5016999999999996,0
mp-769536,Na5Mn2P2(CO7)2,0.4687999999999999,0
mp-571603,CdI2,2.3923,0
mp-694958,Na2Li5Al7Si29O72,3.2399999999999998,0
mp-17501,Ba(ScTe2)2,0.43100000000000005,0
mp-2215,ThHg2,0.0,0
mp-540547,Sm2Co7,0.0,0
mp-553966,Li(CuO)2,0.0,0
mp-556257,SiO2,3.6123,0
mp-28863,Y6OsI10,0.0,0
mp-767149,Li2FeSi3O8,2.6144,0
mp-5299,La2RuO5,0.0,0
mp-1013643,Sr3BiP,0.0,0
mp-7725,Na2UO4,2.0224,0
mp-696490,Ca2H2S2O7,5.0825,0
mp-5363,Hg2TeO5,0.5273999999999996,0
mp-30721,Hg5Pd2,0.0,0
mp-20843,Sr2InPd2,0.0,0
mp-754093,Gd2CdO4,1.6159999999999999,0
mp-29088,Sr3(GeN)2,0.0,0
mp-764496,Na14Ni2O9,1.3427,0
mp-865919,MgAlAg2,0.0,0
mp-686076,Ga6Te10Pb,1.0010000000000003,0
mp-764770,Li13Mn2O9,0.010199999999999987,0
mp-537,ErCo2,0.0,0
mp-21760,Rb2In2Sb3,0.7399999999999998,0
mp-607454,AlC3(NCl2)3,2.5682,0
mp-1001602,B12W,0.0,0
mp-553948,Tl4Hg3Sb2(As2S5)4,1.6628000000000003,0
mp-865924,LiZrAu2,0.0,0
mp-690531,La5Mn5O18,0.0,0
mp-10312,HfVGe,0.0,0
mp-770848,Li2TiCo2O5,1.2580999999999998,0
mp-31286,K3Bi,0.02499999999999991,0
mp-34580,Er3Pb4F17,5.0743,0
mp-770737,Ga2WO6,1.7670999999999997,0
mp-7642,K2AgAs,1.0712000000000002,0
mp-559583,BiP3Pb4O13,3.2834,0
mp-13935,Ba2YbReO6,0.0,0
mp-21482,NpIn3,0.0,0
mp-755663,Ta2Pb2O7,2.8152,0
mp-767778,Li2V3Si3O10,1.9249999999999998,0
mp-745,ThMg2,0.0,0
mp-11108,SrP3,0.0138000000000007,0
mp-504600,NaH4ClO2,4.923,0
mp-306,B2O3,6.3017,0
mp-677217,MgMo3S4,1.2532999999999994,0
mp-27816,Ag3BO3,0.0,0
mp-10898,ScAlNi2,0.0,0
mp-694876,NaSr2LaTi4O12,1.8852000000000002,0
mp-768153,Li2AsPCO7,4.265,0
mp-510565,Cs2AgF4,0.1767,0
mp-568295,Pr8(BCl)7,0.0,0
mp-699467,B3H12CN4O,3.0203,0
mp-755911,Hf2N2O,0.08630000000000049,0
mp-4468,CuSbS2,0.7533000000000003,0
mp-558762,KSnS2,0.0,0
mp-1046350,Ba2TlW2O7,0.0,0
mp-756052,Ca3Zr2O7,3.3234,0
mp-30777,MgPt3,0.0,0
mp-505603,Pb5SO8,2.4636000000000005,0
mp-707821,Ru3C10I2O9,1.9618000000000002,0
mp-1045817,Ba2CuMo2F14,1.2404000000000002,0
mp-18253,SrGa4O7,2.4295,0
mp-554549,CaGeO3,2.5120999999999998,0
mp-28453,CsAuI3,0.7272000000000001,0
mp-867201,CaInHg2,0.0,0
mp-30574,CsGa7,0.0,0
mp-1042209,Si2MoO6,2.3087999999999997,0
mp-978529,SmTmHg2,0.0,0
mp-763418,Li2Fe3O10,0.0,0
mp-10148,InSb,0.0,0
mp-767765,Li34Sb8S7,0.0,0
mp-1019788,K4Al3(SiO4)3,0.0,0
mp-650015,P6N7Cl9,3.8764,0
mp-28357,NbHg3F6,0.0,0
mp-771060,Na5LiNi2P2(CO7)2,3.9759,0
mp-12987,Ho2NiGe6,0.0,0
mp-1048003,Zn(BiO2)4,0.2596999999999996,0
mp-631569,BaHf2As,0.0,0
mp-1046053,Ba2TlSn2O7,0.0,0
mp-554359,Cs2Si3SnO9,3.7921,0
mp-767679,Li8TiMn3O12,1.3066,0
mp-985571,LiAg(CO2)2,2.6889999999999996,0
mp-1042715,Mg3Ta6(FeO6)4,2.6546,0
mp-556333,K2ZnCu3P3O12F,0.0,0
mp-14410,Tl6TeO12,0.0,0
mp-782725,MnOF,0.12150000000000016,0
mp-644092,Na2LiAlH6,2.6364,0
mp-567724,TaSe2,0.0,0
mp-368,P2O3,3.8266,0
mp-755664,Li2(TaS2)3,0.0,0
mp-772422,Na6Fe2B4PO16,0.02799999999999997,0
mp-30299,RbAsO2,3.8821,0
mp-5819,Pr(NiGe)2,0.0,0
mp-18036,Th(NiP)2,0.0,0
mp-1044112,Sr2Cu2NiO7,0.0,0
mp-631564,MgBe2B,0.0,0
mp-32711,SrBr2,4.299799999999999,0
mp-865047,Mg2AlB2Ir5,0.0,0
mp-554286,La6Ti2S8O5,1.3379000000000003,0
mp-7544,ZrSiRu,0.0,0
mp-3347,Be2SiO4,5.8262,0
mp-19362,KFe(MoO4)2,2.5929,0
mp-644533,Yb2Ga10Ru3,0.0,0
mp-2605,CaO,3.6344000000000003,0
mp-557746,Zn2SeCl2O3,4.0926,0
mp-1025772,Te2Mo2W(SeS)2,0.0,0
mp-1028710,TeW2SeS2,0.0,0
mp-556075,SrDy2O4,3.6952,0
mp-557029,PtS4N3Cl,1.5035999999999998,0
mp-1043318,Ge2MoO6,1.7760000000000002,0
mp-770065,Gd2TiO5,3.1628999999999996,0
mp-9774,Ba4Sb2O,0.6382000000000003,0
mp-13972,Sm2SeO2,2.1358,0
mp-770698,Li2AlFeO4,2.9327000000000005,0
mp-977361,ZnFeRh2,0.0,0
mp-636198,CeCu,0.0,0
mp-570245,Ba2GaGeN,0.0,0
mp-675488,Li6I3N,2.3574,0
mp-3887,Li3GaN2,2.3783,0
mp-1047109,AlCu(WO4)2,1.1739999999999995,0
mp-867722,PrNdO2,0.0,0
mp-978832,Sm3Pd,0.0,0
mp-20235,CaMnGe,0.0,0
mp-11145,BaCu9Ge4,0.0,0
mp-755868,LiCu5(PO4)2,0.48829999999999973,0
mp-9858,Ba3Ge4,0.0,0
mp-775601,Li5Mn3Bi2(PO4)6,0.0,0
mp-997015,PbAuO2,0.0,0
mp-604583,RbH5C7SO5,3.7907,0
mp-698317,NdH4C3O8,3.2944000000000004,0
mp-850213,Yb4Br6O,4.251799999999999,0
mp-28476,SrBiSe3,0.4969000000000001,0
mp-8594,Ag7PSe6,0.4411999999999998,0
mp-17973,Cs3GeF7,4.3869,0
mp-7979,K2PdF6,2.0399000000000003,0
mp-763929,Ni3OF5,0.8173999999999999,0
mp-23091,Ba2BiSbO6,1.7763,0
mp-766448,NaSnPHO4F,3.5919,0
mp-779975,Hf2N2O,2.0039,0
mp-570948,LiCaGaN2,2.1319,0
mp-777893,LiVF3,2.6218000000000004,0
mp-776500,Li3V2(OF)4,1.2909,0
mp-1047527,Ca2YFeO5,0.9384000000000001,0
mp-677014,K2ErTi(PO4)3,2.5575,0
mp-4172,Na5GeP3,1.0631000000000004,0
mp-18750,Mn(FeO2)2,0.9977000000000005,0
mp-770543,Mn2O3,0.0,0
mp-776125,Ti3Cu2Sn(PO4)6,0.5726000000000004,0
mp-864955,Mn2CrCo,0.0,0
mp-644245,Na2PH3O5,4.8148,0
mp-34210,Al2ZnO4,3.0302999999999995,0
mp-865812,LiSmHg2,0.0,0
mp-781013,Li3V2P4(HO8)2,0.8002,0
mp-867254,SmAgAu2,0.0,0
mp-28336,Li3P7,1.7927,0
mp-1041194,CaTiS2,0.0,0
mp-19513,SrV2(AsO5)2,1.6632,0
mp-768121,NaSbPCO7,0.0,0
mp-771969,Li2CuCSO7,0.12809999999999988,0
mp-13743,K3GaO3,2.621,0
mp-698695,CaFe2Sb2(PO4)6,2.8711,0
mp-623453,MnGa2Co,0.0,0
mp-11621,ZnNiSb,0.0,0
mp-1030732,TeMoSe,0.3348,0
mp-765476,Y13Ho3O24,4.0041,0
mp-1030709,TeMoSe,0.04360000000000053,0
mp-9546,Yb2C3,0.0,0
mp-769577,Li2VCr3O8,0.8100999999999998,0
mp-29787,Ba5Pt2O9,1.9294999999999995,0
mp-556108,DyTiClO3,3.1637999999999997,0
mp-1003315,LiMn4O8,0.1379999999999999,0
mp-697726,Li2CoP2O7,3.0107999999999997,0
mp-567905,U3Ni3Sn4,0.0,0
mp-560443,AgHg2NO5,0.5517,0
mp-676580,Ba11(Nb3S14)2,0.46530000000000005,0
mp-695800,KScAs2(HO4)2,3.86,0
mp-541785,GePdS3,1.3072,0
mp-631526,SiBPb,0.0,0
mp-16486,Ce(Al2Fe)4,0.0,0
mp-1016881,CdSnO3,0.0,0
mp-6499,BaLiBO3,4.3861,0
mp-865274,TlInS2,1.3006000000000002,0
mp-605771,TlIn(MoO4)2,3.6347000000000005,0
mp-11285,Ca3(GaNi)4,0.0,0
mp-29012,Tl2AgI3,2.3707,0
mp-1018729,HoZnIn,0.0,0
mp-769551,V9PO25,0.9107,0
mp-555621,RbAl3(P3O10)2,5.4378,0
mp-667345,NbTl2PO6,2.9004000000000003,0
mp-567308,Sc,0.0,0
mp-865232,TlPd2Au,0.0,0
mp-5936,La(SiRh)2,0.0,0
mp-585226,Li3Fe2(PO4)3,2.4816000000000003,0
mp-978086,PrMo3,0.0,0
mp-17687,SrDy2CuO5,0.0,0
mp-30582,HfCuHg2,0.0,0
mp-568398,CaBiAu,0.0,0
mp-27485,Tc2O7,2.6664,0
mp-863293,KFe3(PO6)2,0.0,0
mp-698616,Rb3FeF3,0.7186000000000001,0
mp-758620,LiCu2(CO3)3,0.0,0
mp-17546,Cs2RuO4,0.5834000000000001,0
mp-669311,In7Te10,0.8150999999999997,0
mp-531064,KMo3Br7,2.3695,0
mp-542199,Ag4HgGe2S7,0.45219999999999994,0
mp-24728,VH2,0.0,0
mp-853240,LiCoO2,0.5174000000000003,0
mp-740752,BaRe2(H2O3)4,4.0226,0
mp-531317,P4N6O,4.162699999999999,0
mp-651706,Cu6AgBi12PbS22,0.0,0
mp-27465,S8O,2.4234999999999998,0
mp-18639,La2Si2O7,4.5641,0
mp-7851,TaCo3,0.0,0
mp-558,YMn2,0.0,0
mp-1019512,AlPO4,5.2949,0
mp-942704,LiCoHSO5,2.7223999999999995,0
mp-643708,LiH2IO,3.6278000000000006,0
mp-27902,BiSe,0.0,0
mp-19758,Sm3PbC,0.0,0
mp-984711,Cr3Cu,0.0,0
mp-30522,Nd5Ir3,0.0,0
mp-29459,Rb3Mo2Br9,0.9236000000000001,0
mp-1028952,MoW3(Se3S)2,0.8952,0
mp-30930,AlI3,3.2580999999999998,0
mp-768747,Li7Bi(BO4)2,2.3868,0
mp-704184,LiMn(PO3)4,0.0,0
mp-771853,Mn3Nb2Cr3O16,0.7195,0
mp-775705,Li4Ti2Fe3Sn3O16,1.3977,0
mp-707071,ZnH10C4N6(ClO2)2,4.5308,0
mp-588,GaF3,4.7051,0
mp-755421,Ca6HfO8,4.1479,0
mp-756365,CaCeO3,2.3372999999999995,0
mp-11453,HfPd3,0.0,0
mp-258,ZrV2,0.0,0
mp-1018062,FeSnRh2,0.0,0
mp-672261,Ce3Ru,0.0,0
mp-757722,BaZnGeO4,2.8891,0
mp-676240,Ti2CdO6,2.128,0
mp-30941,Cd2(TeO3)3,1.9308999999999998,0
mp-20785,Nd(FeGe)2,0.0,0
mp-1041103,HoMg(MoO3)2,1.1227,0
mp-705524,CuH7C3SN3O4,0.0046,0
mp-672374,UNi2Sn,0.0,0
mp-505418,CsDyI3,0.0,0
mp-626800,ReH3O5,3.7536,0
mp-762820,LiV2(SiO4)2,0.9173,0
mp-626569,Ti3H2O7,2.3741999999999996,0
mp-3614,KTaO3,2.0983,0
mp-1013531,Sr3BiN,0.0,0
mp-1154,Ho4C7,0.6147,0
mp-27316,Rb5Zr4F21,5.6715,0
mp-1042917,Ca2Ni3O8,0.4121999999999999,0
mp-571213,PNCl2,3.8545,0
mp-30406,Li2TlAu,0.0,0
mp-28040,Hf(BH4)4,5.7222,0
mp-546285,NbI3O,0.8108000000000002,0
mp-3291,AgTe4Au,0.0,0
mp-27656,Zn2(PS3)3,1.7947000000000002,0
mp-30663,Ga3Pt5,0.0,0
mp-17468,SrZrSi2O7,4.7096,0
mp-1027607,Te2Mo3W(SeS2)2,0.12740000000000018,0
mp-1025937,Te4Mo3S2,0.1554000000000002,0
mp-680410,K3Nb2S11,1.4262000000000001,0
mp-582736,Eu(MgSb)2,0.0,0
mp-29400,CsFeCl3,0.0,0
mp-18134,Sr3YbRhO6,0.0,0
mp-676317,Rb2ZnCl3,3.1933999999999996,0
mp-1009593,CrCoTe,0.0,0
mp-5141,Na2SeO4,3.3557,0
mp-558354,H10C3S3N,1.7681000000000002,0
mp-571102,TlI,2.2085999999999997,0
mp-542749,K2(MoSe6)3,0.8439000000000001,0
mp-680189,Y21B7(C7I9)2,0.0,0
mp-672371,Ni3Sb,0.0,0
mp-1419,S5N6,2.2908,0
mp-756837,Ca4Zr3TaO12,0.0,0
mp-28330,TeAuCl7,1.5352999999999999,0
mp-29966,NOF,3.1441,0
mp-972238,Ti2VIr,0.0,0
mp-781772,Li2Mn3VO8,0.38219999999999965,0
mp-2938,Tm(FeSi)2,0.0,0
mp-773602,MnCo3O8,0.888,0
mp-644028,Fe2CuAs2(HO5)2,0.7587000000000002,0
mp-4092,SrSeO4,3.512,0
mp-19409,Mn(AsO3)2,1.7241,0
mp-1043961,ZnSb3O7,0.0,0
mp-1020141,Na2Al2Si3O10,4.4468,0
mp-3201,Li2GaPd,0.0,0
mp-11385,YFe5,0.0,0
mp-1042858,Ca2Cr3O8,0.8584000000000003,0
mp-10798,HgSeO3,2.2784,0
mp-6031,Li16Nb2N8O,3.3829000000000002,0
mp-20207,MnAsRh,0.0,0
mp-677627,Li3Nd3(TeO6)2,3.1313999999999997,0
mp-23778,H4CN2O,5.0712,0
mp-571428,MgNi3B2,0.0,0
mp-15567,Na3AuS2,2.3033,0
mp-643683,Ba5(Ga3H)2,0.37349999999999994,0
mp-505311,Sr2CrCuSO3,0.9866000000000001,0
mp-607169,Eu(GePt)2,0.0,0
mp-1046961,BaMg(AgO2)4,0.0,0
mp-642462,B3C10N3,0.17079999999999984,0
mp-1427,Lu2O3,4.0206,0
mp-6419,CaSi2(BO4)2,5.6644000000000005,0
mp-681911,Sm4AlSi5(NO)7,1.5404,0
mp-1019708,CsBaLiP2O7,4.8877999999999995,0
mp-6328,Na2Ti2Sb2O,0.0,0
mp-974381,Rh2S3,0.4180999999999999,0
mp-763922,Li2FeCo3O8,0.1896,0
mp-672654,Zr6Co16Ge7,0.0,0
mp-2568,YSi2,0.0,0
mp-31326,Mg2In,0.0,0
mp-975799,LiZn3,0.0,0
mp-31203,Pr(SiAg)2,0.0,0
mp-12895,YbGa4Ni,0.0,0
mp-569624,HfCr2,0.0,0
mp-4908,Y(CoGe)2,0.0,0
mp-1045499,YV2O4,0.8193999999999999,0
mp-9984,SnS2,1.4855,0
mp-1030015,Mg3WN4,1.9534000000000002,0
mp-753979,Sn2P2O7,2.9406,0
mp-15614,Cu(RhSe2)2,0.0,0
mp-1018082,CrCo2Sb,0.0,0
mp-1009049,IrN2,0.0,0
mp-759307,TiNb2O7,2.0475,0
mp-10046,V2AsC,0.0,0
mp-1073,CaCd,0.0,0
mp-1040783,Ho(SbO3)2,0.0,0
mp-29344,LiGaCl3,3.6888,0
mp-1250,Lu2In,0.0,0
mp-972323,TaNbTc2,0.0,0
mp-1042392,MgBiSbO5,1.3769,0
mp-32868,Ag2S,0.6242999999999999,0
mp-768764,Li2BiBO5,0.0,0
mp-19845,TiPbO3,1.5827999999999998,0
mp-583606,H9C2(NO)3,3.4402,0
mp-555094,PrPH5CO7,3.7298,0
mp-706608,KPH3O3F,6.6406,0
mp-28614,NaBPt3,0.0,0
mp-20996,DyIn5Rh,0.0,0
mp-771122,Na2CuBSO7,0.9652999999999999,0
mp-1013691,Ba3BiP,0.0,0
mp-769393,DySeO3,1.7860999999999998,0