mp_id,formula,band_gap,fidelity
mp-769552,LiMgCr3Se2(SO6)4,2.4957000000000003,0
mp-1589,TiCr2,0.0,0
mp-865523,TiMnRh2,0.0,0
mp-764344,Li2FeSiO4,2.9306,0
mp-9489,NaSmTiO4,2.4267999999999996,0
mp-24232,H5CN3O4,3.5185,0
mp-755991,AgBrO4,1.0812,0
mp-849803,Li2Ni2S3,0.0,0
mp-558489,Ca6Hf19O44,4.130800000000001,0
mp-23100,Sr2LuBiO6,1.9118,0
mp-623087,Re3(TeBr)7,1.1555,0
mp-1208,ErAl2,0.0,0
mp-23888,MgTe(H4O3)3,4.4186,0
mp-675600,Hf6PbO18,0.0,0
mp-29365,Li5BiO5,1.3597000000000001,0
mp-759680,LiSi2BiO6,3.6346000000000003,0
mp-775393,Li2Cr3SbO8,2.8111999999999995,0
mp-976358,Nd3Al,0.0,0
mp-3207,Sr(NiGe)2,0.0,0
mp-648414,V2PS10,1.1097000000000001,0
mp-690977,NaP3(PbO3)4,3.2891,0
mp-775433,Li2Ni(PS3)2,0.5457999999999998,0
mp-36539,KBiSe2,0.8241,0
mp-1027274,MoWSeS3,0.5998999999999999,0
mp-567221,H10C3IN,4.3149,0
mp-31362,Na3YCl6,5.1809,0
mp-775196,Li2MnCr3O8,0.2761999999999998,0
mp-774172,Mn3OF5,0.0,0
mp-504882,CaSb10(S3O5)2,1.7464999999999993,0
mp-19929,MgInNi2,0.0,0
mp-777447,LiFe2F7,3.4868,0
mp-30143,U(IO4)2,2.0423999999999998,0
mp-5621,NbCu3S4,1.6574,0
mp-1724,Er2Fe17,0.0,0
mp-770868,VWO4,0.6270999999999995,0
mp-3889,NaBO2,4.1074,0
mp-565590,Cu4GeS4,0.13370000000000015,0
mp-28772,SbSCl9,1.6041,0
mp-1812,Hg5Au6,0.0,0
mp-1048391,BaFe4O7,1.6662000000000001,0
mp-754079,GdAsO4,3.0349000000000004,0
mp-769274,LiCuPO4,0.0259999999999998,0
mp-553897,Ba2Si3O8,4.4855,0
mp-643387,AlH2PbO2F3,4.494199999999999,0
mp-861184,Li2WS4,1.9196,0
mp-1018095,BaGaGeH,0.03980000000000006,0
mp-766202,Li7Ti3(SiO6)2,0.0,0
mp-673098,LiBi(PO3)4,4.8039,0
mp-558418,NaCrF6,0.0,0
mp-645514,Bi12Rh3Br2,0.0,0
mp-19133,YVO4,2.9705,0
mp-695515,Na13Zr8Si9(PO16)3,4.418699999999999,0
mp-647350,Rb5HfFe(MoO4)6,3.2284,0
mp-10884,AlFeCo2,0.0,0
mp-626819,ReH3O5,3.8311,0
mp-19873,DySiRu,0.0,0
mp-24302,CdAs2HF13,3.9677,0
mp-974658,Rb3Ac,0.0,0
mp-1019714,CsCa10(PO4)7,5.2034,0
mp-9380,SrGe4O9,3.0645000000000002,0
mp-631293,HgP2Se,0.0,0
mp-864994,DyHg3,0.0,0
mp-683974,Pr2(SeO3)3,3.6441,0
mp-569547,Sr6FeC2N7,0.0,0
mp-770392,BaLaBr5,3.1517999999999997,0
mp-775132,NaLi3Fe4(SiO3)8,2.5606000000000004,0
mp-14411,K4GeO4,2.771,0
mp-541407,RbCuSnS3,0.13260000000000005,0
mp-581457,Rb15Hg16,0.0,0
mp-555309,CS4N2(OF)3,1.3596,0
mp-2361,Hf5Al3,0.0,0
mp-560008,PNF2,5.6175,0
mp-20892,ZrFeP,0.0,0
mp-54,Co,0.0,0
mp-21197,NdIn3,0.0,0
mp-767538,NaCePCO7,1.2258,0
mp-764566,LiFe8(BO3)8,1.2399999999999998,0
mp-770870,MnTlO3,0.0,0
mp-29769,Sc5(NiTe)2,0.0,0
mp-7088,Ta2C,0.0,0
mp-6099,LiSc(SiO3)2,4.929,0
mp-12772,Hf2Al,0.0,0
mp-1047477,Ti3(AsO4)4,1.1405999999999998,0
mp-10038,Er3AlC,0.0,0
mp-1045910,Ba2MgMn2CuF14,1.0008,0
mp-1047786,Mg(SnO2)2,1.1012000000000004,0
mp-7771,Sr(CdAs)2,0.13670000000000027,0
mp-16978,Ba3MgSb2O9,2.6494,0
mp-21383,Eu(SiRh)2,0.0,0
mp-1016930,ZnGeO3,0.0,0
mp-5821,TaAgS3,0.0,0
mp-697660,Cu2H6C3N4O,2.1485,0
mp-29033,P3BrCl14,1.5683,0
mp-721144,Na4P2H20O17,3.0882,0
mp-18825,YCrO4,0.26760000000000006,0
mp-22826,KNb8O14,0.0,0
mp-770854,Li10Fe3Sb7O24,1.0320999999999998,0
mp-767401,Gd2AsO5,2.2475000000000005,0
mp-5586,NaErO2,4.0544,0
mp-30410,Mn2Au5,0.0,0
mp-555087,Ba5Si(Cl3O2)2,4.5485999999999995,0
mp-13339,EuCuTeF,0.6179000000000006,0
mp-4636,ScCuO2,2.3904999999999994,0
mp-8709,KIn(GeO3)2,2.3073,0
mp-776689,Li3Fe2F9,3.8723,0
mp-6478,LiTaGeO5,3.7398,0
mp-763508,V(CO3)2,1.1404999999999998,0
mp-689943,CoPO4,1.2167,0
mp-672315,PC2S2N3,3.3084000000000002,0
mp-24523,CsAlH24(SeO10)2,4.2024,0
mp-704626,FeAg(SeO3)2,1.9070000000000003,0
mp-1745,Sm2O3,3.7443000000000004,0
mp-11809,TiAl2,0.0,0
mp-641541,Ge3N4,1.4131999999999998,0
mp-867306,AlCuAu2,0.0,0
mp-8278,Ba(MgP)2,1.1366,0
mp-568891,MnSbRh,0.0,0
mp-758604,LiAgF2,1.3843999999999999,0
mp-676378,Sr6Ta2O11,2.3998999999999997,0
mp-12108,VPt2,0.0,0
mp-19335,KCr3O8,1.8261,0
mp-976259,LiTmRh2,0.0,0
mp-9317,KZrCuS3,0.5924999999999998,0
mp-867296,RePO5,0.0,0
mp-557632,K2LiBO3,3.6258,0
mp-29394,Gd2CCl2,0.4887999999999999,0
mp-734299,Ce2H16S3O20,1.2367,0
mp-771028,Li3SiBiBO7,0.0,0
mp-1055,CdSe,0.0,0
mp-759638,Y5Tm11O24,4.047700000000001,0
mp-6323,BaYb2CuO5,0.0,0
mp-30055,Rb3BrO,0.40979999999999994,0
mp-773646,InP2H9(NO4)2,3.6990999999999996,0
mp-768229,Li2BiS3,0.8880999999999997,0
mp-778721,Li8Mn7Fe(BO3)8,2.9745000000000004,0
mp-978939,Sm3Th,0.0,0
mp-1046678,ZnCrPO5,1.5747999999999998,0
mp-1044777,PrZn(FeO3)2,0.0,0
mp-7317,Sm5Co2,0.0,0
mp-12156,K3Sb5O14,1.1985000000000001,0
mp-649774,CuSbPbS3,0.7698,0
mp-29404,La2CCl,0.0,0
mp-770892,VPO5,1.9487,0
mp-11553,TlPt,0.0,0
mp-4984,SiB2Mo5,0.0,0
mp-19789,Mn(BW)2,0.0,0
mp-1045947,Ca2Ta2TiO8,0.0,0
mp-675946,Li2MgBr4,3.7295,0
mp-30337,Al5W,0.0,0
mp-669328,ReTe3Br5,1.2721000000000002,0
mp-860461,Li2VCrO4,1.319,0
mp-365,MgB4,0.36409999999999965,0
mp-971982,Tm2ZnCu,0.0,0
mp-766581,Li4TiS4,1.9017000000000002,0
mp-762510,Li4Ni5Sb3O16,0.0,0
mp-704967,K5CeNi2(NO2)12,0.0,0
mp-12286,Sr2Ta2O7,2.9093,0
mp-19900,La(GeRu)2,0.0,0
mp-998787,CaTlCl3,4.2088,0
mp-763793,Li2Mn3F8,3.3624,0
mp-568329,K3Na2SnBi3,0.0026999999999999247,0
mp-558298,Zn3TeAs2Pb3O14,2.9581999999999997,0
mp-22350,Nd3SnN,0.0,0
mp-863251,Sr2SbAu,0.6225000000000005,0
mp-11461,HoHg2,0.0,0
mp-21220,CaIn4Rh,0.0,0
mp-758002,Li3Sn(PO4)2,0.24860000000000015,0
mp-2170,Li2Pt,0.0,0
mp-561200,Na3MnF6,1.6641,0
mp-541013,TiI4,1.0867,0
mp-752475,Rb2Ga2Ge3O10,2.1164,0
mp-768440,Li3VS4,1.3336,0
mp-632723,MgPHO9,0.0,0
mp-777417,Li4Ti5Mn3O16,0.39970000000000017,0
mp-3319,Mg(RhO2)2,1.1521,0
mp-1027683,TeMoSe,0.0,0
mp-981336,Zn3C,0.0,0
mp-765601,Li3V4O11F,1.9947999999999997,0
mp-866810,Ca2SnS4,2.4422999999999995,0
mp-21904,PbS2O3,3.5394,0
mp-676553,RbCrI3,0.0,0
mp-752569,La3ScO6,4.0062,0
mp-770125,BaLaCl5,3.8800999999999997,0
mp-13302,LuSnAu,0.0,0
mp-555098,SrSeO3,3.8781,0
mp-21438,LaInAu,0.0,0
mp-980662,YTmAl2,0.0,0
mp-80,Sb,0.0,0
mp-1047156,Zn(CuO2)2,0.42979999999999996,0
mp-616218,Cd(In2I3)2,1.5345,0
mp-631516,Be2HgTe,0.0,0
mp-30794,Na15Sn4,0.0,0
mp-30408,MgAu3,0.0,0
mp-554539,Ca6Si3H2O13,4.47,0
mp-672265,Cu3Pd,0.0,0
mp-13271,ErAsPd,0.0,0
mp-865181,EuGeO3,0.0,0
mp-570308,Eu(NiSb)2,0.0,0
mp-1046030,Ba2Ti2TlO7,0.13159999999999972,0
mp-977411,NpSnAu2,0.0,0
mp-28855,Cd4OF6,1.899,0
mp-554140,TlV3(CrS4)2,0.0,0
mp-20765,NpSi,0.0,0
mp-776427,ZrO2,3.5894999999999997,0
mp-581736,Eu(SiRu)2,0.0,0
mp-1048359,BaAlFe4O7,0.8155000000000001,0
mp-505698,SmH18(IO3)3,4.1273,0
mp-11740,KNdTe2,1.2648000000000001,0
mp-764685,LiVOF3,2.2221,0
mp-677391,Tm4Zr3O12,4.164999999999999,0
mp-5040,CaTe2O5,3.3657999999999997,0
mp-1016877,HgRhO3,0.0,0
mp-28201,Sr4(PPd)5,0.0,0
mp-17817,Ca3(GeP2)2,0.7361999999999997,0
mp-1029349,Y4Se3N2,1.4004000000000003,0
mp-8885,BaCdS2,1.7352999999999998,0
mp-757150,Li5BiS4,1.5608999999999997,0
mp-3455,Er(NiP)2,0.0,0
mp-989514,Cs2NaSbCl6,3.0473,0
mp-27272,Ca3PI3,2.1548,0
mp-559620,Cu5Bi2(B2O7)2,0.03869999999999996,0
mp-755486,Na2SnO3,2.2583999999999995,0
mp-972536,Sm2TlAg,0.0,0
mp-21332,LiGdO2,3.2803999999999998,0
mp-768199,Li3SbS3,2.2473,0
mp-540678,Yb3S4,0.6597999999999997,0
mp-756,TbAl2,0.0,0
mp-32554,Ta2I5,0.0,0
mp-542136,Na3PSO3,3.8960999999999997,0
mp-10582,Ca5P12Rh19,0.0,0
mp-767777,Li2V(Si2O5)3,2.041,0
mp-756299,Li4HfO4,4.224,0
mp-14743,Ba3WN4,1.9649999999999999,0
mp-1014369,Cr3N4,0.0,0
mp-569783,ErFe3,0.0,0
mp-758475,Li4(CuO2)3,0.0,0
mp-20922,Dy3GaC,0.0,0
mp-635426,GdAu,0.0,0
mp-860969,Sm3Y5O12,3.9455999999999998,0
mp-1018753,LaTlCd,0.0,0
mp-558003,UH12C4N4O11,2.3849,0
mp-13541,Sr2Mg(BO3)2,4.579700000000001,0
mp-569943,K2AgI3,2.5686999999999998,0
mp-1125,Li2S,3.8953999999999995,0
mp-568664,CaAgBi,0.0,0
mp-774247,Na3FeBSO7,2.6907000000000005,0
mp-1043807,LaFeTeO6,1.2935999999999996,0
mp-861900,LiGaAu2,0.0,0
mp-1047601,Zn(CuO2)2,0.11319999999999997,0
mp-32565,Tb4H9,0.0,0
mp-1013711,Ba3AsP,0.0,0
mp-570466,Li2Ca,0.0,0
mp-581833,RbN3,3.7529,0
mp-1044864,Al4Cr13Si2(SbO14)2,0.7113999999999994,0
mp-558178,KCBr(NO2)2,2.0874,0
mp-17448,Ba3CaIr2O9,0.0,0
mp-18804,BaDyCo4O7,0.19060000000000032,0
mp-1045074,Al(CoO2)3,0.0,0
mp-673875,Fe2RhS4,0.0,0
mp-775830,Na3Bi(BO3)2,3.1380999999999997,0
mp-706225,Sr3LaMn2(WO6)2,1.5598999999999998,0
mp-561125,Ba5P3BrO12,4.963699999999999,0
mp-778698,Ga3NO3,0.9003000000000001,0
mp-17388,Yb3Cu6Sn5,0.0,0
mp-771976,Rb2Be2O3,3.6274,0
mp-1018752,LaTeCl,0.6562999999999999,0
mp-571583,CdI2,2.3623000000000003,0
mp-1042131,Mg(MoO2)2,1.8083,0
mp-675954,Ga3Te3As,0.0,0
mp-770507,Li4Ti3Mn3(NiO8)2,1.1058,0
mp-1040883,CaFe3(P2O7)2,3.7926,0
mp-18556,Rb2Cd3S4,1.7838,0
mp-774242,LiTaWO6,3.1938,0
mp-643023,Mg2H4Ru,0.8613,0
mp-13922,Ba2Ge,0.0007999999999999119,0
mp-4350,La2(SeO3)3,3.5120000000000005,0
mp-1043347,ZnGe2WO6,2.2638000000000003,0
mp-755226,La2Tb2O7,0.0,0
mp-30088,Ba3P4O13,5.1231,0
mp-7285,HfNi3,0.0,0
mp-2640,TbAs,0.0,0
mp-980004,SmGa2Co,0.0,0
mp-600053,SiO2,5.522,0
mp-706670,AlCuH28S2ClO22,0.8261000000000001,0
mp-850341,Fe4O3F5,1.5869,0
mp-1041863,MnZn(SiO3)2,2.6174000000000004,0
mp-570019,CdI2,2.3549,0
mp-567820,K6NbTlAs4,1.1811,0
mp-1046357,Ta2WO8,1.7106000000000001,0
mp-17638,Rb3SbSe4,1.3317,0
mp-558888,PS2N3Cl2(OF)2,4.803100000000001,0
mp-865251,TmThTc2,0.0,0
mp-699405,Ca6Mg5Al2Si11O36,4.8512,0
mp-757470,K2ZnP4(HO2)8,5.0611,0
mp-28052,B9H11C2,3.6607,0
mp-861974,PaCdPt2,0.0,0
mp-625174,H5IO6,2.2527,0
mp-19398,FeAsO4,2.083,0
mp-1697,TbPt2,0.0,0
mp-720338,Sr7SiB3NO13,0.0,0
mp-999060,Ti2CoSi,0.0,0
mp-982730,Ho2ZnIr,0.0,0
mp-761019,Hf2N2O,2.1159,0
mp-1030964,KMg6CO8,0.0,0
mp-28990,Bi2Te4O11,2.7870999999999997,0
mp-770951,Li4Mn3Ni3(TeO8)2,0.09860000000000024,0
mp-35687,Be(CN)2,5.9058,0
mp-1044609,Mg(SnO2)2,0.0,0
mp-1041636,CaCuP2O7,0.2677999999999998,0
mp-20163,Th2S3,0.0,0
mp-2408,Ga3Pd5,0.0,0
mp-736217,ScH16I3O8,2.5303,0
mp-675524,CsPbCl3,2.413,0
mp-766276,Ba2In2O5,0.4077000000000002,0
mp-22749,Mn5C2,0.0,0
mp-672651,Zr6Ni16Ge7,0.0,0
mp-975729,Pr(BRu)2,0.0,0
mp-673798,K3ClO,1.0264,0
mp-1030176,Te2MoWSeS,0.0,0
mp-12929,SmAsO4,3.6891999999999996,0
mp-699636,KTb2Cu(MoO4)4,1.1595,0
mp-34169,Zn(InSe2)2,0.8265000000000002,0
mp-510697,Zn5B3Rh7,0.0,0
mp-22605,Cr2CdSe4,0.33000000000000007,0
mp-30738,LiIr3,0.0,0
mp-978548,SmEr3,0.0,0
mp-631525,KHg2B,0.0,0
mp-642363,Al2O3,4.271699999999999,0
mp-22736,InCuS2,0.007699999999999818,0
mp-1017516,MgSiP2,0.0,0
mp-695278,Ba3La9Mg7Nb5O36,2.9983000000000004,0
mp-1041750,Ti(WO4)2,2.6298,0
mp-768755,Li2Sn2(SO4)3,3.9606999999999997,0
mp-1007855,FeNi3,0.0,0
mp-22577,Pb3SO6,2.8022,0
mp-17676,Sr2SnS3F2,2.0801,0
mp-567539,MgGa2,0.0,0
mp-20366,Sm3Ga,0.0,0
mp-999133,TaPd,0.0,0
mp-707247,Na4CuP6(H4O11)2,0.7785,0
mp-22067,Ba2CuGe2O7,0.1876,0
mp-31603,LiCo(PO3)4,1.2302,0
mp-1016190,KMn3O6,1.0661,0
mp-1018138,VI2,1.0495999999999994,0
mp-10862,Ho2Ge6Pd,0.0,0
mp-9459,Y4C5,0.0,0
mp-23409,Pr12C6I17,0.0,0
mp-1013532,Sr3AsP,0.0,0
mp-15922,Gd2ReO5,0.7654999999999998,0
mp-7241,Ho2InPd2,0.0,0
mp-774402,VCr3(PO4)6,0.0,0
mp-568967,Ba5Ga5Sn,0.0,0
mp-21208,RhF3,0.5624,0
mp-22449,InCu(PSe3)2,0.31110000000000015,0
mp-883,HoN,0.08749999999999991,0
mp-12633,Mn5B2P,0.0,0
mp-641314,Dy2(GePt3)3,0.0,0
mp-777498,Ti3CrNi2(PO4)6,0.04949999999999921,0
mp-975997,NaLi2Pb,0.0,0
mp-22162,YbNiSn,0.0,0
mp-9950,BaLiSi,0.0,0
mp-984768,DyHoIr2,0.0,0
mp-763194,LiMn2(BO3)2,0.5031000000000001,0
mp-866565,CaSnS3,0.3031999999999999,0
mp-653891,NbTe2(SeI3)2,0.9449999999999998,0
mp-773190,Na2VBAsO7,1.5444,0
mp-1985,C3N4,3.1729000000000003,0
mp-973893,Lu2TlHg,0.0,0
mp-13627,Y3ReO8,1.6955,0
mp-6253,KLiBeF4,6.8529,0
mp-997109,PbAuO2,0.37270000000000003,0
mp-721,TbCd,0.0,0
mp-618177,K2ZnCl4,4.407500000000001,0
mp-10999,LuGeIr,0.0,0
mp-21499,YbInPd,0.0,0
mp-20209,Eu2ReO5,0.0,0
mp-757817,Li2Nb(PO4)2,1.1534000000000004,0
mp-676013,Yb2FeS4,0.0,0
mp-9023,ScSiAu,0.0,0
mp-973920,Lu2Ta2O5,0.0,0
mp-570099,RbVBr3,0.5839000000000003,0
mp-977218,Li2Mg,0.0,0
mp-555433,NaYbCO3F2,0.6712,0
mp-504864,YCu(WO4)2,1.4969999999999994,0
mp-696658,H6CN2O3,4.4935,0
mp-10960,Tb2Ti2S2O5,0.7039,0
mp-29097,Hg3TeBr4,1.9365999999999999,0
mp-569851,Ho10Si17,0.0,0
mp-23170,IO2,1.4524999999999997,0
mp-865261,Lu2ZnOs,0.0,0
mp-19519,Ni3(AsO4)2,2.3598000000000003,0
mp-971754,V2ReW,0.0,0
mp-1006164,PmPu3,0.0,0
mp-768,TmAl3,0.0,0
mp-11603,KNd2CuS4,0.9129,0
mp-1048546,V3Se2ClO8,1.6458000000000002,0
mp-1020638,Na8PO3,0.0,0
mp-23326,Ca4Cl6O,5.2239,0
mp-761633,Li3Mn(CoO3)2,0.005499999999999616,0
mp-764763,Li7Mn4O12,0.0,0
mp-1018722,HgSe,1.0322,0
mp-721604,CuH4C2S2N2Cl,0.9968000000000001,0
mp-672959,Li2Cu(PO3)4,0.8002999999999998,0
mp-1084,ZrB12,0.0,0
mp-764159,V2OF5,1.4965,0
mp-553942,Cu2S,0.0,0
mp-770390,Li2Cr4O13,1.5539,0
mp-867004,Th2Ni7,0.0,0
mp-849570,Li2V3SbO8,2.0776000000000003,0
mp-680114,CdI2,2.3552999999999997,0
mp-19880,FeTe2,0.07739999999999903,0
mp-763178,Li4Ti3Ni3(TeO8)2,1.3917000000000002,0
mp-1041774,Zn(SnO2)2,1.1900000000000004,0
mp-706411,Fe4Sn(CO)16,2.4478,0
mp-971657,Au3N,0.0,0
mp-641661,XeF6,2.5833,0
mp-996962,LiAgO2,0.6091000000000001,0
mp-999201,Sc2MnSi,0.0,0
mp-1015780,CrN2,0.2319,0
mp-557146,TiAs2O7,2.5598,0
mp-672254,CaPdPb,0.0,0
mp-1016639,BaMg6Mo,0.0,0
mp-1045465,Y(TiS2)2,0.0,0
mp-7171,TmP,0.0,0
mp-1045561,LiMn2O4,0.0029000000000003467,0
mp-505365,Mg3Nb6O11,0.24370000000000047,0
mp-1045384,Li(TiS2)2,0.0,0
mp-753287,CaCdO2,0.3799000000000001,0
mp-3451,BaVS3,0.0,0
mp-850739,Fe3OF5,1.4469,0
mp-722262,CaB3H3O7,5.7435,0
mp-4255,Ba(CuS)2,0.5059999999999993,0
mp-20916,V5Ge3,0.0,0
mp-36582,NaHS,3.1472,0
mp-758844,Li3CuSiO4,0.8529999999999998,0
mp-694982,Sr2La2MgTi3O12,1.8857,0
mp-628742,Cs5Sb8,0.5847000000000002,0
mp-10816,NdAgAs2,0.0,0
mp-551250,ErBi2IO4,1.375,0
mp-775193,Li7Fe3Ni(PO4)6,2.4234,0
mp-14659,KAsSe2,1.5885000000000002,0
mp-607711,NdNO4,1.1368,0
mp-559534,Ba5Al2In2IrClO13,0.0,0
mp-2530,Li2Te,2.4914,0
mp-998913,KO3,0.842,0
mp-998398,InSnBr3,1.1056,0
mp-619071,PbCl2,3.0279999999999996,0
mp-567741,PC2N3Cl4,3.7460000000000004,0
mp-998434,RbTlF3,0.0,0
mp-555132,BiXeF9,1.9537,0
mp-680198,Cs4Th2P5Se17,1.3128,0
mp-978094,NdHo3,0.0,0
mp-22339,ThCoSn,0.0,0
mp-10837,Na2MgInF7,4.9737,0
mp-9006,Ho2CF2,1.1355000000000004,0
mp-583278,Cs3Mo15Se17,0.0,0
mp-18427,Nb2Al,0.0,0
mp-695314,Ca5Si2HO9F,2.9067000000000003,0
mp-764643,Li5Fe8(BO3)8,1.5151,0
mp-1043700,Fe(Si2O5)2,1.0807,0
mp-865738,LiPrHg2,0.0,0
mp-779087,Li3Mn2Fe(BO3)3,2.6445,0
mp-699647,Mn2SnC9ClO9,2.3249999999999997,0
mp-606703,Ce4(GeS4)3,0.0,0
mp-19863,K2CuPb(NO2)6,0.0,0
mp-983237,Ga3Bi,0.0,0
mp-780873,Li2Cr3CuO8,0.0,0
mp-707538,CdRe2(H2O5)2,0.19140000000000001,0
mp-677611,TlAgAs2PbS5,1.5879999999999996,0
mp-669387,Sr2P6Rh7,0.0,0
mp-999189,Fe3Ni,0.0,0
mp-24389,CaPH5O6,5.3416,0
mp-996957,Mg(CrSe2)2,0.6322000000000001,0
mp-1044480,PrMg(SnO3)2,0.0,0
mp-30353,AgPt3,0.0,0
mp-998928,TlCdS2,0.0,0
mp-11879,BaNiSn3,0.0,0
mp-505363,P3Pd7,0.0,0
mp-646821,UInNi2,0.0,0
mp-707928,H8C2S3(NO3)2,5.7914,0
mp-673165,Dy2O3,0.0,0
mp-570707,NdSe2,0.0,0
mp-775843,Zr2N2O,1.6504000000000003,0
mp-766217,Sr4Cu2O7,0.8323,0
mp-640748,Os(CO)4,2.9232000000000005,0
mp-774410,Li8Mn3Fe5(BO3)8,0.0,0
mp-568705,YbIr,0.0,0
mp-734150,Na3YH6(CO4)3,4.889,0
mp-554701,SbP(OF3)2,4.3964,0
mp-21014,DySnPd2,0.0,0
mp-1016845,ZrCdO3,0.0,0
mp-28079,Na2Mn2S3,0.49150000000000027,0
mp-1008500,BaO,2.3598999999999997,0
mp-542028,Ti3Al2NiN,0.0,0
mp-10847,NiSbSe,0.0,0
mp-568306,Mg5Si6,0.0,0
mp-685779,Sn5(Mo3S4)12,0.0,0
mp-554076,BaLiBS3,2.1531,0
mp-673070,LiNb(PO4)2,2.2718000000000003,0
mp-1023128,CuS,0.0,0
mp-1044185,CaCo2(PO5)2,0.0,0
mp-558455,Na4Li5(BO3)3,3.8255,0
mp-15608,Ba(MnAs)2,0.0,0
mp-849776,InH10C3O11,3.4852,0
mp-21495,CrFeP,0.0,0
mp-772588,Li2V5B3O13,1.9400999999999997,0
mp-41837,RbTiZnOF5,3.1708,0
mp-573425,Y8Co5,0.0,0
mp-761342,Li4Co2Cu3Sb3O16,0.0,0
mp-9042,Np(SiPd)2,0.0,0
mp-9385,RbAu3Se2,1.7326000000000001,0
mp-764760,LiVOF3,2.1361,0
mp-767480,Li3Cu2SbO6,0.029800000000000715,0
mp-763578,Li4(NiO2)5,0.48960000000000026,0
mp-977392,Ho2MgIn,0.0,0
mp-1018703,EuZnGe,0.0,0
mp-560222,Na3SO4F,5.1205,0
mp-558781,ScTaO4,4.0258,0
mp-686467,Sr14La6Mg3Ti17O60,1.8642999999999996,0
mp-567502,Ga8Cu3Mo2,0.0,0
mp-680048,RbW3Br7,2.6942,0
mp-556783,NaLiCO3,4.502199999999999,0
mp-580287,Zr3Cu,0.0,0
mp-555257,Mg2BiPO6,3.6187,0
mp-505629,Cr3SiNi2,0.0,0
mp-6623,Rb2Cd2(SO4)3,3.676,0
mp-1043124,CaFe4(CuO4)3,0.0,0
mp-680604,YbCd6,0.0,0
mp-999052,Ti2MnAl,0.05109999999999992,0
mp-2399,YHg,0.0,0
mp-1695,Y2C3,0.0,0
mp-721268,H6S(NO2)2,2.0645,0
mp-26742,Cu4(PO4)3,0.0,0
mp-862730,LiGaRh2,0.0,0
mp-1028901,Te2MoW3(Se2S)2,0.0,0
mp-1046397,Ba2YTlNi2O7,0.25709999999999944,0
mp-686458,Rb11Al14Si10(AgO16)3,0.020100000000000007,0
mp-627349,Si2H2O3,1.3789000000000002,0
mp-975461,Hg3Sb,0.0,0
mp-762258,Na2Sn4O9,1.4813,0
mp-20771,Eu(ZnGe)2,0.0,0
mp-1046375,SrMgCo(PO4)2,2.9702,0
mp-772848,K3ZnPCO7,3.8609,0
mp-780474,Li3MnFe2(BO3)3,2.8421,0
mp-1044722,BiO2,0.0,0
mp-974828,Rb3Pr,0.0,0
mp-754857,Nb2Ge2O7,1.524,0
mp-698479,RbTeHOF4,4.8825,0
mp-766134,UH12(NO7)2,2.3813,0
mp-541000,K3As11,1.4670999999999998,0
mp-776170,LiTi2O4,0.0,0
mp-754326,NaAgO2,0.5874999999999999,0
mp-30676,Zr3Ti2Ga3,0.0,0
mp-20077,USe2,0.0,0
mp-972461,Sm3Zr,0.0,0
mp-1048325,Ba2YCr3O7,0.007800000000000473,0
mp-21861,Cu3TeO6,0.0,0
mp-16571,Ca7Ge6,0.0,0
mp-867753,CuSbRh2,0.0,0
mp-4819,MgGeO3,2.5261,0
mp-779332,B2TeO6,2.5854999999999997,0
mp-752933,Cu6OF11,0.0,0
mp-766288,Ba2CaI6,3.4939000000000004,0
mp-755881,Ba2Ti6N2O11,1.8813,0
mp-558893,SbCSF11,4.4303,0
mp-548658,RbPO3,4.5235,0
mp-1018786,LiMnSb,0.0,0
mp-7127,Ba2YbTaO6,0.0,0
mp-505467,YSiPd,0.0,0
mp-696181,UH12(NO4)2,2.3374,0
mp-757102,Sr2RhO4,0.0,0
mp-865340,Tm2HgOs,0.0,0
mp-18162,Li(CuO)2,0.0,0
mp-20906,HoCoC,0.0,0
mp-568493,In3SnI5,2.0773,0
mp-560827,MgH8C4(N3O2)2,4.7911,0
mp-978517,SmCdPd2,0.0,0
mp-30985,Tb6Br7,0.0,0
mp-16520,NpAl4,0.0,0
mp-19459,K2MgV2O7,3.6258,0
mp-757094,La2HfO5,3.7213000000000003,0
mp-27962,CI4,1.1002999999999998,0
mp-20723,Ca2PbAu2,0.0,0
mp-16495,AlCrFe2,0.0,0
mp-780740,Fe4OF7,0.11509999999999998,0
mp-3579,UGeSe,0.0,0
mp-13820,Cd3SiO5,0.9679,0
mp-771248,Na2Ge2O5,2.9897,0
mp-695133,CsMg4Al9(SiO4)9,4.0440000000000005,0
mp-1048141,BaAlCu4O7,0.0,0
mp-673144,LiSnP2O7,0.12429999999999986,0
mp-4354,Tl(NiSe)2,0.0,0
mp-1025816,MoW2(Se2S)2,0.9087999999999998,0
mp-22125,Np(CoGe)2,0.0,0
mp-1029327,Te6MoW3S2,0.0,0
mp-1013730,Cd5(S2Cl)2,1.7228999999999999,0
mp-783903,Li2Fe3NiO8,0.0,0
mp-638018,UGeS,0.0,0
mp-780336,Li3Cr3(PO4)4,1.976,0
mp-7475,La2S3,1.0341999999999993,0
mp-9059,KLi6TaO6,4.3852,0
mp-19086,BaCoO2,0.39670000000000005,0
mp-861553,Li6Mn3Cr2Fe3O16,0.3721000000000001,0
mp-977378,ErCdAg2,0.0,0
mp-974682,RbGaH2,1.3521,0
mp-1013878,LiV3P3O13,1.2862,0
mp-546757,Sn3PO4F3,3.7868,0
mp-1395,VRu,0.0,0
mp-744747,V2P2H4O11,1.7056999999999998,0
mp-11755,Lu6Sb2Mo,0.0,0
mp-998414,CuAgF3,0.0,0
mp-557484,BiS4N3Cl4,2.0457,0
mp-554491,SiC(ClF)3,6.1728000000000005,0
mp-771081,Li3Ni(BO2)5,4.1018,0
mp-19172,KV3O8,2.0824,0
mp-28178,NaNbCl6,2.2372,0
mp-29015,CaThBr6,2.0416,0
mp-1100,YbC2,1.0157,0
mp-674478,BaCO3,4.1594999999999995,0
mp-10992,DyCuAs2,0.0,0
mp-566131,KCrF3,0.7059000000000002,0
mp-772036,YTa7O19,3.1553999999999998,0
mp-24348,BiP4HO12,4.9882,0
mp-974332,S3Br,0.0,0
mp-28164,Ba4P2O,1.0423999999999998,0
mp-672271,NbSe2,0.0,0
mp-3194,Tb2Al3Si2,0.0,0
mp-3193,Na2Si2O5,4.4533,0
mp-14589,Hf2Si4Ni3,0.0,0
mp-776214,Hf2N2O,2.0381,0
mp-638070,LiB13C2,2.6604,0
mp-1041461,MgV3P3O13,0.0,0
mp-559385,SrHo2O4,3.7325000000000004,0
mp-546546,SiO2,5.5638000000000005,0
mp-12682,NaMnTe2,0.0,0
mp-770936,Ba2Sc2O5,2.8133000000000004,0
mp-541712,Ce3Si6N11,0.0,0
mp-1016880,ZnRhO3,0.0,0
mp-18109,RbDy(SO4)2,5.666399999999999,0
mp-425,GdB2,0.0,0
mp-972220,TiPt3,0.0,0
mp-15511,CaTe3O8,2.0065,0
mp-679927,Rb2Sc(NO3)5,3.0417,0
mp-865748,YbGaAu2,0.0,0
mp-712,YCu,0.0,0
mp-3575,Ca3(BO3)2,4.8224,0
mp-755236,HoTiO3,0.0,0
mp-770541,Mn2PO5,0.8653999999999997,0
mp-1019138,SmSbTe,0.0,0
mp-626337,Sr(H8O5)2,3.5641,0
mp-4658,La(BO2)3,4.542,0
mp-866046,Ti3In,0.0,0
mp-20165,Ce2InPd2,0.0,0
mp-14630,Y3Si3O10F,5.1402,0
mp-753766,Ho6ReO12,0.035900000000000265,0
mp-13138,Cu3Sn,0.0,0
mp-23574,SbPCl8O,1.8685,0
mp-569093,U3Si11Pt23,0.0,0
mp-63,Pr,0.0,0
mp-560831,Na6P4Pb3S16,2.3264,0
mp-1019105,KMgBi,0.38549999999999995,0
mp-1016873,CaHfO3,3.6643999999999997,0
mp-863749,Rb2Hf2O5,1.9487,0
mp-15748,Sr2CuSi2O7,0.15869999999999962,0
mp-974408,Re3W,0.0,0
mp-571495,LuB4,0.0,0
mp-981209,Ti3Ni,0.0,0
mp-23492,Si(Bi3O5)4,2.3477999999999994,0
mp-21922,Te3(PbO4)2,2.9897,0
mp-978962,Tl3Fe,0.0,0
mp-775511,KLi(WO3)6,0.0,0
mp-672981,BiP2O7,0.0,0
mp-771092,Li6Mn3Cr(PO4)6,0.6678,0