mp_id,formula,band_gap,fidelity
mp-571440,K2CuBr3,1.901,0
mp-8220,LiTb(CuP)2,0.0,0
mp-1020112,Mg2SiO4,4.457700000000001,0
mp-1009878,ZrC,0.0,0
mp-541157,EuCd(BO2)5,0.0,0
mp-39483,SrLaTiMnO6,0.08319999999999972,0
mp-680671,Mg4Zn7,0.0,0
mp-685415,Na3SmBr6,4.1353,0
mp-979417,DyYCd2,0.0,0
mp-28812,Ag5BiO4,1.459,0
mp-988939,AlAs,0.0,0
mp-8870,LiMgAsO4,3.4543999999999997,0
mp-561966,Rb2U(N2O7)2,1.7696,0
mp-1041241,CaHo(MoO3)2,1.1409000000000002,0
mp-771978,Ga2HgO4,0.10379999999999967,0
mp-556801,Na3B6PO13,4.7576,0
mp-1044612,Y4Co13Si2(SbO14)2,1.5925000000000002,0
mp-684028,Li3Bi(PO4)2,3.7489999999999997,0
mp-1652,ZnPd,0.0,0
mp-583463,FeCl3,0.43079999999999996,0
mp-975079,MnZn3,0.0,0
mp-28189,FeSeCl7,1.3206,0
mp-864637,NdAl,0.0,0
mp-554560,Li4Be3P3BrO12,5.864999999999999,0
mp-557355,Rb2SiP4O13,5.166600000000001,0
mp-9814,Cu3SbSe4,0.0,0
mp-10142,Ta3B4,0.0,0
mp-3828,BaAl2O4,3.9419000000000004,0
mp-23037,CsPbCl3,2.1891999999999996,0
mp-559228,Rb2HfS4,2.1728000000000005,0
mp-5207,Sc(PO3)3,5.1542,0
mp-1026348,Te2W3Se4,0.1471,0
mp-780401,Li6Cu2C4SO16,0.0,0
mp-27840,Cr3Se4,0.0,0
mp-850933,Fe4O7F,0.0,0
mp-754369,Na4MgO3,1.4967000000000001,0
mp-626046,H7NO6,3.2664,0
mp-775990,Fe3Ni2Sn(PO4)6,0.0,0
mp-558164,CaHf4O9,4.4454,0
mp-755342,LuGaO3,2.5134000000000003,0
mp-867327,Hf2TcRu,0.0,0
mp-567927,ZrAlPt,0.0,0
mp-776402,B10H13,3.206,0
mp-672325,TbIn2Ni,0.0,0
mp-5135,Dy(CoB)2,0.0,0
mp-706655,Na2B4H8O11,4.566,0
mp-849732,LiSb(TeO4)3,1.3328000000000002,0
mp-554390,SrAl2SiN2O3,3.7236,0
mp-618423,PtC2(ClO)2,2.9238,0
mp-18911,LiVP2O7,2.1256,0
mp-755293,Sr4Sb2O,0.9842,0
mp-639480,SiO2,5.6231,0
mp-1021516,K2Sn,0.0,0
mp-676002,Ba2PrF7,6.2167,0
mp-672251,CsGaBr4,3.3514,0
mp-32994,Hf4N3,0.0,0
mp-15205,Dy2Si5Ni3,0.0,0
mp-1020654,SrBeB2O5,5.6873000000000005,0
mp-768604,SrLaCl5,3.4167000000000005,0
mp-22037,Cu6PbO8,0.0,0
mp-2441,Cd3P2,0.0018000000000002458,0
mp-18999,NaMn7O12,0.0,0
mp-850529,SrCaI4,3.3834999999999997,0
mp-1019779,K2Mg2Si2O7,4.9573,0
mp-774185,Mn6OF11,0.3546,0
mp-981381,Tm2TlHg,0.0,0
mp-38284,Ce2Nd2O7,1.7118000000000002,0
mp-650715,Gd2Be2GeO7,3.2535999999999996,0
mp-557027,Rb2Be2Si2O7,4.3938,0
mp-972116,VIrO3,0.0,0
mp-684609,HCl,5.1701,0
mp-755523,TaS2,0.0,0
mp-1041188,ZnBi3P3O13,2.3749,0
mp-770950,LiLa4MnO8,1.7081999999999988,0
mp-4752,Na5Al3F14,6.548500000000001,0
mp-4668,K(CoSe)2,0.0,0
mp-1045951,ZnSnO2,1.1204,0
mp-505137,Nb3SiTe6,0.0,0
mp-646670,Ba2Co4ClO7,0.0,0
mp-1046890,Zn(SnO2)2,0.0,0
mp-686042,Zn4B2O7,1.8634000000000002,0
mp-554928,H12C3NF3,7.2752,0
mp-770830,HoBiO3,2.7472,0
mp-504593,Pb2CCl2O3,3.2252,0
mp-17244,Ba2ZnGe2S6O,2.0929,0
mp-13070,Sc2AlC,0.0,0
mp-865535,Ac2ZnGa,0.0,0
mp-19478,VAg2(PO4)2,2.0121,0
mp-695951,LiAg2P3(HO5)2,2.4369,0
mp-27478,Na3PaF8,4.2399,0
mp-561492,ZnSb2(XeF4)6,2.5338,0
mp-753995,YTmO3,4.582000000000001,0
mp-560119,TbCl2F,4.8595999999999995,0
mp-676117,Li2CuGe,0.0,0
mp-5284,U(CrSi)2,0.0,0
mp-616468,ReC5IO5,2.1994000000000002,0
mp-557481,Sr4RhO6,0.0,0
mp-676275,Nd2Pb5F16,4.1182,0
mp-768400,Li8FeS6,0.0,0
mp-10950,Sr2Cu(PO4)2,0.22160000000000002,0
mp-604304,HgH16(Br3N2)2,1.9891999999999999,0
mp-1044068,MgMn2(PO5)2,0.0,0
mp-559115,P2RhClF6,1.4246999999999999,0
mp-675766,K4CO6,0.11829999999999999,0
mp-547125,TbBi2ClO4,1.3439000000000005,0
mp-770525,Na6Mn2C4SO16,3.8957000000000006,0
mp-694884,KFeH5(SO5)2,0.2983,0
mp-570695,CdI2,2.3516,0
mp-31408,Al4(B2O5)3,5.8172999999999995,0
mp-675739,Ce5CuSe8,0.0,0
mp-1046893,BaMg(BiO2)4,0.6147999999999998,0
mp-1044100,ZnP2(WO5)2,2.7575,0
mp-714972,V8O,0.0,0
mp-559303,MoS3(NCl4)2,0.5145,0
mp-15974,Mn(CrS2)2,0.0,0
mp-989615,YWN3,2.1947,0
mp-631386,Mg2NbFe,0.0,0
mp-646059,C13Cl3,2.1015,0
mp-997571,H6CIN,3.9223,0
mp-30970,Er12Co7,0.0,0
mp-1019576,Ca4SiN4,1.4498000000000002,0
mp-560619,AgH12C6N5O3,2.8931,0
mp-8742,DyCoSi2,0.0,0
mp-30447,Sr9Cd4Bi9,0.0,0
mp-1030198,Te2MoWSeS,0.0,0
mp-865950,AcAg3,0.0,0
mp-571479,BaYbSn3,0.0,0
mp-542121,Rb4Nb2Si8O23,3.7154,0
mp-772098,Sm(ClO4)3,4.9264,0
mp-2444,GaRh,0.0,0
mp-771963,Ba2LaCl7,3.6471,0
mp-1045601,AlFe3Se2ClO8,2.3190999999999997,0
mp-764754,LiV3O5F3,1.1471999999999998,0
mp-2157,Co3W,0.0,0
mp-569207,K2OsNCl5,1.6187,0
mp-557379,P2H6C4N2Cl2O,2.9631,0
mp-17912,Rb3SbSe3,2.3028,0
mp-554149,BaNaFe2F9,3.7199,0
mp-1018658,CaCoSi,0.0,0
mp-755362,Sm2Se2O,2.0938999999999997,0
mp-3119,NdTiO3,0.0,0
mp-3494,CeGa3Pd2,0.0,0
mp-4406,CaSO4,5.9393,0
mp-1030156,Te4Mo3WSe4,0.15359999999999996,0
mp-28993,La(AuF4)3,2.1504,0
mp-672289,Ge3N4,2.064,0
mp-28815,ThSnI6,1.9875999999999998,0
mp-27505,Fe3Sn2,0.0,0
mp-580192,HoGe2Pt,0.0,0
mp-542176,CuH8C4O5,0.3773,0
mp-4054,YAl3Ni,0.0,0
mp-685633,Y10U4O27,1.6892999999999998,0
mp-773518,Li4Cr3Fe3(TeO8)2,0.0015999999999998238,0
mp-569508,Pr6Cd4Pd13,0.0,0
mp-570722,NbI3,0.0,0
mp-9478,BaSi4O9,4.3439,0
mp-556584,Pm2O3,3.7016,0
mp-707441,SnH12Pt(N2Cl3)2,1.834,0
mp-771854,Li4Cr5Co3O16,0.0472999999999999,0
mp-735488,RbNa3Mo2H18O17,4.5822,0
mp-541611,La4Ru6O19,0.0,0
mp-29674,Al2B2Ru3,0.0,0
mp-571296,Er(GeRu)2,0.0,0
mp-772780,K3BePCO7,4.0032000000000005,0
mp-975467,Mn3Hg,0.0,0
mp-540806,Ca2IrO4,0.0,0
mp-18168,TlZnPO4,3.8952,0
mp-756095,NaCu3O4,0.0,0
mp-2026,PrTl3,0.0,0
mp-20131,YIn3,0.0,0
mp-546142,Na2UO4,2.0153999999999996,0
mp-8203,Zr(PS3)2,1.5319000000000003,0
mp-677406,CuH12N2(Cl2O)2,0.5761,0
mp-753623,Li2Cu4S3,0.6691000000000003,0
mp-696806,BaH4(BrO)2,4.3426,0
mp-753629,Zr2O,0.0,0
mp-134,Al,0.0,0
mp-1009493,NpN,0.0,0
mp-30715,Lu2Zn17,0.0,0
mp-558408,Nb4Te9I4O,0.25329999999999986,0
mp-989622,BaWN3,1.505,0
mp-867295,LiCeTl2,0.0,0
mp-1043243,MgNi(GeO3)2,2.5052,0
mp-770720,Li4ZrO4,4.0628,0
mp-759069,B(HO)3,6.0809,0
mp-23192,HgI2,1.3282999999999998,0
mp-761897,LiCuF3,0.5463,0
mp-631481,NaSrNb2,0.0,0
mp-778861,LiV2OF5,1.1189000000000002,0
mp-510453,Ag3RuO4,0.0,0
mp-680551,NdNi4B,0.0,0
mp-1048150,Ba2Sb3O7,0.0,0
mp-37405,Al5CuSe8,0.5140000000000002,0
mp-10468,CeBPt2,0.0,0
mp-5496,Al5C3N,1.4427000000000003,0
mp-557343,Zn3BPO7,3.1967999999999996,0
mp-632485,Bi2Te2S,0.04590000000000005,0
mp-1040974,HoZn(MoO3)2,1.1181999999999999,0
mp-698018,LiAlSi2H2O7,3.9817,0
mp-9907,SrAs3,0.0,0
mp-676586,Na(VS2)2,0.0,0
mp-21476,Fe2N,0.0,0
mp-695354,Na3Zr2Si2PO12,4.4556,0
mp-505132,Ta3Te14Pd3,0.0,0
mp-23471,K2RuCl6,0.0,0
mp-765857,LiCr(SiO3)2,2.9516999999999998,0
mp-679999,Re3(SeCl)7,1.5043,0
mp-9427,NaYP2O7,5.2806,0
mp-530429,YZr3F15,5.5173000000000005,0
mp-14600,CaAl2O4,4.3909,0
mp-684816,K2NaNb(OF2)2,2.3831,0
mp-758070,LiCu2PO4,0.31989999999999963,0
mp-625254,P(HO)3,4.1531,0
mp-759455,LiSbP2O7,3.3884,0
mp-775782,Na4Sn2C4SO16,0.0,0
mp-766343,Ba2CaI6,3.6188,0
mp-1045986,Sr2AlTlFe2O7,0.0,0
mp-542515,Gd2Te4O11,2.8974,0
mp-29287,Cs3CoBr5,0.6983,0
mp-1020590,Na8N3O,0.0,0
mp-29505,Cs3BiO3,3.0476,0
mp-770462,La2Bi2O7,0.0,0
mp-623854,NaNb3O8,2.4842,0
mp-1129,ScIr,0.0,0
mp-1048426,Ba2YNi3O7,0.0,0
mp-18352,HfTe3O8,3.8425999999999996,0
mp-673696,Lu4Zr3O12,4.2011,0
mp-1786,Ti3Au,0.0,0
mp-541335,As2Se2S(NF6)2,2.2391,0
mp-770972,Li2Ni3BiO8,0.32699999999999996,0
mp-7305,SmZrF7,5.8965,0
mp-9509,K2PAuS4,1.559,0
mp-505331,CeMnSi,0.0,0
mp-561357,TiNb3Cl7O2,0.0,0
mp-1025874,MoS2,1.4985,0
mp-19096,Ba2VO4,1.5244999999999997,0
mp-1025806,Te2Mo(WS2)2,0.22219999999999995,0
mp-29844,Tb(AlCl4)3,4.2153,0
mp-1029330,Hf2SeN2,0.4767999999999999,0
mp-10444,Ca2Al2O5,3.5637999999999996,0
mp-556738,BaZrF6,6.3261,0
mp-605027,Mg5Pd2,0.0,0
mp-540566,V2Hg2O7,1.2817999999999998,0
mp-28727,La4Bi2S9,1.0769000000000002,0
mp-1041261,Bi3P3O13,0.0,0
mp-866071,MgTaOs2,0.0,0
mp-1029899,Ca5(OsN3)2,0.0,0
mp-8226,ThNF,2.2611,0
mp-760676,LiCu2PO4,0.4204000000000008,0
mp-11623,LaInO3,2.7507,0
mp-1045734,MgV2O6,1.722,0
mp-754212,BaSr2I6,3.9768,0
mp-7723,NaAlF4,5.776199999999999,0
mp-554747,Li5La3Nb2O12,3.2624,0
mp-1047707,Zn(NiO2)2,0.0,0
mp-977143,LaDyRu2,0.0,0
mp-696867,V4NiS8,0.0,0
mp-760502,LiH2ClO,5.3072,0
mp-759183,K2Mg(H2N)4,2.2680000000000002,0
mp-774401,CoSbO4,0.0,0
mp-569303,ZnB2(CN)8,5.5121,0
mp-8974,Ba3Dy4O9,3.2409999999999997,0
mp-4383,Nd2Fe17N3,0.0,0
mp-770743,Li2Hf2O5,3.8274,0
mp-1016106,HfZn16,0.0,0
mp-1609,Cr3Ir,0.0,0
mp-866506,CaSn2S5,1.2572,0
mp-561834,Cs4CO4,1.2269999999999999,0
mp-505064,Nb2P,0.0,0
mp-570823,Ba(BSe3)2,1.6958000000000002,0
mp-625628,GaHO2,2.0642,0
mp-631411,CaTa2Tl,0.0,0
mp-680415,Os3C10(BrO5)2,0.5450999999999999,0
mp-21292,Tm3InC,0.0,0
mp-22881,CdCl2,3.5214,0
mp-703312,RbPH4O5,5.1997,0
mp-3942,TmSnPd2,0.0,0
mp-6693,CaZn(SiO3)2,4.0551,0
mp-695992,LiH2BrO5,1.8113000000000001,0
mp-4535,PrGaO3,3.3909,0
mp-542043,K4H6C2O9,4.1658,0
mp-999177,SmGa,0.0,0
mp-570991,TiSi2,0.0,0
mp-505212,Cs3AuO,1.3261000000000003,0
mp-640118,CeZn3,0.0,0
mp-33551,LiFe5O8,1.1879000000000004,0
mp-570452,Y(SiAu)2,0.0,0
mp-773925,Li4V3NiO8,0.9832000000000001,0
mp-2571,Rb2O3,0.0,0
mp-25886,CuPO4,0.05339999999999989,0
mp-6741,NaLa(PO3)4,5.095599999999999,0
mp-557494,AgBTe4C2(O3F10)2,2.8863000000000003,0
mp-1018824,NpSbTe,0.0,0
mp-1670,MnPt,0.0,0
mp-12593,ScIr3,0.0,0
mp-977224,PrAs3,0.0,0
mp-1027135,TeMoWSe2S,0.0,0
mp-779784,Li6MnFe5(BO3)6,2.8636,0
mp-579536,CsCu2ICl2,2.017,0
mp-780237,Li3Cu3(PO4)2,0.7711000000000006,0
mp-4989,CrNiAs,0.0,0
mp-1005727,TmNp3,0.0,0
mp-30603,ZrCu5,0.0,0
mp-12082,Er(CrSi)2,0.0,0
mp-12975,Sm2CdPd2,0.0,0
mp-28145,Rb2PdCl6,1.2868,0
mp-32383,Li2NiP2O7,4.116,0
mp-600622,EuIO,0.0,0
mp-11602,KY2CuS4,0.9919999999999995,0
mp-976707,H4CN2O,4.8065999999999995,0
mp-3751,AlTlF4,4.4298,0
mp-20791,MnVAs,0.0,0
mp-1008283,Ba,0.0,0
mp-1028509,Te2MoW3(SeS2)2,0.09660000000000002,0
mp-773519,Li4Mn3Fe(PO4)4,3.4465,0
mp-780853,LiFe3P3(HO6)2,3.285,0
mp-1046883,Mg(BiO2)2,1.3967,0
mp-647164,Cu12Sb4S13,0.0,0
mp-1041741,MgCuP2O7,0.21069999999999967,0
mp-9518,NdZnPO,1.2348,0
mp-990,HoAu2,0.0,0
mp-780318,LiCoOF2,0.27779999999999994,0
mp-11793,SmCuSe2,0.7755999999999998,0
mp-10402,TiTl2F6,3.871,0
mp-29573,Sb4S5Cl2,1.8691999999999998,0
mp-29091,Ti(CuS)4,1.4256000000000002,0
mp-675769,Ce(Mo3Se4)2,0.06329999999999991,0
mp-560908,V3S4,0.0,0
mp-600111,SiO2,5.5173000000000005,0
mp-769394,Ba4Ta2O9,3.5999,0
mp-554383,Na2Si2O5,4.4573,0
mp-29815,LaAs2,0.5974000000000004,0
mp-676728,CdSnAs2,0.0,0
mp-756176,Li2CrS3,0.0,0
mp-762319,Li4TiO4,3.8455999999999997,0
mp-10572,NaPN2,4.6812000000000005,0
mp-862774,LiInPt2,0.0,0
mp-18991,Ba(NiO2)4,0.28459999999999974,0
mp-861109,SmY3O6,3.9935,0
mp-560456,Hg2Te2O7,1.4253000000000005,0
mp-616521,AgC2N3,3.5682,0
mp-1029037,MoW3(SeS3)2,0.6821000000000002,0
mp-971647,NaMnO2,0.0,0
mp-626562,Ca(H8O5)2,3.7409,0
mp-770734,Mg3(AsO4)2,3.0162,0
mp-17696,Ba2VN3,1.3895999999999997,0
mp-4549,SrSiN2,2.9695,0
mp-981530,YbPrPd2,0.0,0
mp-2990,TmAgSn,0.0,0
mp-12199,Hg3(PO4)2,1.4042999999999999,0
mp-974768,Rb2Mg,0.0,0
mp-628768,In4SnSe4,0.8023000000000002,0
mp-32795,Re3O8,0.0,0
mp-570590,CdBiSe2Br,1.3868,0
mp-10580,La(AlGe)2,0.0,0
mp-759684,Na3Bi(P2O7)2,0.0,0
mp-13125,PrCoGe3,0.0,0
mp-1014509,Cr3N2,0.0,0
mp-12079,K(CoS)2,0.0,0
mp-554769,MoSBr,0.7938000000000001,0
mp-985608,Nd2O5,2.8438000000000003,0
mp-997095,NiAuO2,0.0,0
mp-48,C,0.0,0
mp-622107,CeCd2,0.0,0
mp-631568,AlAgB,0.0,0
mp-557074,BaPr2Ti3O10,1.9490000000000003,0
mp-1025587,Te4W3S2,0.0,0
mp-1025923,Te2Mo2WS4,0.0,0
mp-698134,K2Na2Sb2H6O3F10,4.5674,0
mp-22159,UNiAs2,0.0,0
mp-773502,KCoPCO7,0.0,0
mp-17913,Tb2SiSeO4,2.5839,0
mp-31004,Sn(SO2)2,2.7104,0
mp-676987,Yb14Ti10O41,0.0,0
mp-568039,Cs(WCl3)3,0.0,0
mp-21026,Li2InPt,0.0,0
mp-754929,Ga3NO3,1.0046999999999997,0
mp-574822,NaC4N3,3.5561,0
mp-555026,AlF3,7.4176,0
mp-18892,KBaVO4,3.979,0
mp-561072,Sr2DySbO6,3.6563,0
mp-680636,Er(Al10Cr)2,0.0,0
mp-698349,CdH6C4(S2O)2,2.3204000000000002,0
mp-581786,Cu3Sn,0.0,0
mp-978564,SmYTl2,0.0,0
mp-11565,YRh5,0.0,0
mp-554610,PrZr2F11,5.7572,0
mp-1883,SnTe,0.04279999999999973,0
mp-780324,Co2O3F,0.0,0
mp-556761,Ba5As3ClO12,3.9959999999999996,0
mp-778430,K8Al2O7,2.2214,0
mp-669684,U3Se5,0.0,0
mp-770852,Li2TiNi2O5,2.0374000000000003,0
mp-15697,Sr2As,0.0,0
mp-31421,PrAgSn,0.0,0
mp-19049,BaTeMo2O9,2.8743,0
mp-865159,Dy2AlZn,0.0,0
mp-25460,Li3CuPCO7,0.1737000000000002,0
mp-571660,CdI2,2.4135999999999997,0
mp-21964,TlCu7S4,0.6768000000000001,0
mp-505561,Na2ZnP4(H4O5)4,4.893199999999999,0
mp-684664,GaSb,0.0,0
mp-975142,RhI,0.0,0
mp-1017510,MgTe,0.8062999999999994,0
mp-864767,YbZn11,0.0,0
mp-19310,Na3Co(NO2)6,2.4684,0
mp-569153,PrCoSb3,0.0,0
mp-631288,LaGeOs,0.0,0
mp-776780,Li4Ti3Cr3(SnO8)2,0.0,0
mp-30681,YGa6,0.0,0
mp-540833,V2Co3O8,1.741,0
mp-584134,LiBiP2O7,3.6507,0
mp-976797,Pm3Sc,0.0,0
mp-568328,FeP4,0.8292999999999999,0
mp-12086,Cu3Pt,0.0,0
mp-12362,AgHg3SbO6,0.7092999999999998,0
mp-4852,Ni(RhSe2)2,0.0,0
mp-651048,Ag9(BiO3)2,0.5562,0
mp-865756,YbGaPd2,0.0,0
mp-1013540,Ca3PN,0.0,0
mp-989584,Ca6Sn2NO,0.0,0
mp-17621,CsReO4,4.2585,0
mp-1029116,TeMoWSe2S,0.0,0
mp-572805,Cs2I4O11,2.9238,0
mp-10791,ErBO3,5.131399999999999,0
mp-640562,KYb3F10,0.0,0
mp-542237,SmP4HO12,5.7384,0
mp-768250,LiPrPCO7,0.3264,0
mp-31677,LiCr2(PO4)3,0.0,0
mp-752879,Li3Ti4O8,0.0,0
mp-1311,Cr5S6,0.0,0
mp-4181,Pr2CuO4,0.0,0
mp-1002572,LiMnO2,0.8561000000000001,0
mp-569458,AlV4C3,0.0,0
mp-23352,Ge(Bi3O5)4,2.3733000000000004,0
mp-639160,Gd2InGe2,0.0,0
mp-6258,CeCr2Si2C,0.0,0
mp-684109,LiBiP2O7,3.9872,0
mp-22906,CsBr,4.2433,0
mp-6340,LiAl(SiO3)2,5.368399999999999,0
mp-530245,Tm2TiO5,1.8640999999999996,0
mp-866015,CaPrZn2,0.0,0
mp-775434,CrBiO4,0.0,0
mp-696482,H2SeNO4,1.1286,0
mp-1046109,Ba2Ca2Ti3Tl2O10,0.0,0
mp-641191,U2Tl2Mo3O16,2.3226,0
mp-531820,Li4Ti7O16,2.8296,0
mp-1019895,La3BN2O3,1.2114000000000011,0
mp-1043583,Mg(W2O3)2,0.0,0
mp-863726,Pm2PdRh,0.0,0
mp-1030309,Te2MoWS2,0.0,0
mp-973314,Ho2PdRh,0.0,0
mp-19835,Nb2InC,0.0,0
mp-1044866,Zn(SbO2)2,1.7036999999999995,0
mp-705854,CaP3H10NO12,5.119,0
mp-865048,TiZnIr2,0.0,0
mp-20120,FeSe,0.0,0
mp-779455,Li7Ti5O12,0.0,0
mp-862672,LiY2Rh,0.0,0
mp-27341,BH4N,5.9404,0
mp-9757,BaSm2PtO5,2.6058000000000003,0
mp-21031,Pd3PbC,0.0,0
mp-28545,RbLiO,2.2542999999999997,0
mp-34078,H3ClO,5.3864,0
mp-569862,Rb4P2Se9,1.4230999999999998,0
mp-622273,SnHg2(SBr)2,2.3254,0
mp-9813,WS2,1.8407999999999998,0
mp-10024,Ce,0.0,0
mp-30927,CsAs4F13,5.2661999999999995,0
mp-975463,RbAcO3,0.0,0
mp-999123,TbH3,0.0,0
mp-1018131,LuAg2,0.0,0
mp-989399,Ca6Al2NF,0.0,0
mp-722780,Pr2P3(HO2)5,5.6653,0
mp-866184,Ti3Pb,0.0,0
mp-3502,Zn2Te3O8,3.2903000000000002,0
mp-30402,K(SnAu2)2,0.0,0
mp-35929,LiMnO2,0.9377999999999997,0
mp-20086,MnSn2,0.0,0
mp-540922,CrTe3,0.18849999999999945,0
mp-697592,BePH3O5,5.2,0
mp-557302,S2NO,2.2777,0
mp-568623,Sc44Os7,0.0,0
mp-769922,V2SiO4,0.5883000000000003,0
mp-2954,Dy(SiAu)2,0.0,0
mp-569333,Li2AgBi,0.0,0
mp-1041330,Ca(FeO2)2,1.3037,0
mp-1029574,Na5OsN4,0.0,0
mp-18591,KZnPO4,3.9535,0
mp-558538,HoSeO3F,4.2961,0
mp-541537,K2ZnSiO4,3.4888999999999997,0
mp-778877,Li5InO4,2.4721,0
mp-30473,Ca3Ga5,0.0,0
mp-755831,BrClO,1.1661,0
mp-1029306,Te4MoW3(SeS)2,0.0,0
mp-1047208,Ca2AgWO6,0.05800000000000005,0
mp-31306,C2O3F2,5.2829,0
mp-1006246,CeSm3,0.0,0
mp-971944,SrMg3,0.0,0
mp-25840,LiTi2(PO4)3,2.5563,0
mp-5105,La(SiRu)2,0.0,0
mp-1029155,TeMoWSeS2,0.0,0
mp-16919,Y2HfS5,1.2263000000000002,0
mp-31979,Li2Mn(PO3)4,4.1915,0
mp-757048,LiTi(SiO3)2,0.08079999999999998,0
mp-531530,MgAl2O4,4.183400000000001,0
mp-561235,AsCSF11,4.5943,0
mp-779916,Li2CuPO4,1.2004000000000001,0
mp-1047397,Ca(SnO2)2,0.0,0
mp-1042385,BiAs2O7,0.02679999999999999,0
mp-19867,NpAs2,0.0,0
mp-1270,Dy2S3,0.5937999999999999,0
mp-30710,Pr2Zn17,0.0,0
mp-759131,LiCu3F10,0.0,0
mp-673703,Rb3Bi7Pb3(IO)10,0.24940000000000007,0
mp-10638,ZrSb,0.0,0
mp-568823,YbAu3,0.0,0
mp-768358,ScInO3,2.1968,0
mp-974307,NdCuTeO,1.4320999999999993,0
mp-9344,TiTlCuTe3,0.027900000000000702,0
mp-24120,CaAsH5O6,4.0367,0
mp-674999,La2Zr2O7,2.2255000000000003,0
mp-607371,RuN2,0.0,0
mp-28089,P4Se3I2,2.0715999999999997,0
mp-1042137,BaYCuSnO5,0.0,0
mp-217,ErTl,0.0,0
mp-769967,Li3NbV3O8,0.7048000000000001,0
mp-756672,Li4Si4Bi2O13,3.8328,0
mp-1938,Al2O3,5.313199999999999,0
mp-30805,SrNiSn3,0.0,0
mp-572921,Cs2Ga3As5O18,2.4251,0
mp-684704,H2O,4.749499999999999,0
mp-33932,NbHO3,2.6275999999999997,0
mp-570642,H12W3C4NCl9,0.09089999999999998,0
mp-767754,Na5Bi2P(CO4)4,0.0,0
mp-555256,Li4CO4,6.072799999999999,0
mp-556896,Ba4AgAuO6,1.8533,0
mp-571541,Sr8In4Cu3N5,0.0,0
mp-721686,SnH4(ClO)2,3.8242000000000003,0
mp-33461,Li3Mn3O8,0.0,0
mp-978282,Mg3Hg,0.0,0
mp-571648,Rb2MnCl6,1.1995,0
mp-996161,Nb3AlC2,0.0,0
mp-755612,DyGaO3,3.6351000000000004,0
mp-1364,YNi,0.0,0
mp-569935,La3(BN2)2,0.0,0
mp-4586,LiAlTe2,2.4411,0
mp-766834,Li7Ti16O32,0.0,0
mp-6978,RbHoO2,3.6250999999999998,0
mp-754624,Al2O3,5.667699999999999,0
mp-866713,ReTeSCl4,2.3274,0
mp-17714,Ho4(B2O5)3,5.5299,0
mp-571169,InBi2Se4Br,1.2202999999999995,0
mp-6708,RbNb2PS10,1.5518,0
mp-505534,PuB6,0.0,0
mp-1045358,Li(CrS2)2,0.0,0
mp-12635,TiAu4,0.0,0
mp-1033,BeNi,0.0,0
mp-37779,Fe5CuO8,0.0,0
mp-697121,MgZn2H12(BrO)6,3.6444,0
mp-12620,NdSeF,0.9158,0
mp-1045577,ZnSn(PO3)4,3.5097,0
mp-22490,Sc3(NiGe)4,0.0,0
mp-626720,BaH4O3,4.2073,0
mp-1026352,Te4Mo(WS)2,0.0,0
mp-505807,Nd5Co21B4,0.0,0
mp-696085,Zn2P2H12O11,4.9444,0
mp-23474,AgBi3S5,0.5219999999999994,0
mp-6687,Ba2HoSbO6,3.4155,0
mp-973694,H8PdC2NCl3,1.4783000000000002,0
mp-1047362,Zn(CuO2)2,0.0,0
mp-676802,K2HfF6,2.7355,0
mp-755667,Ba4Bi3O11,0.0,0
mp-1045293,Ca(SbO3)2,1.3276000000000003,0
mp-1019542,BaCaB2O5,4.4673,0
mp-583762,Na3W3Cl13,0.9180000000000001,0
mp-6676,Sr2HoRuO6,0.0,0
mp-540331,LiMn(PO3)4,1.5583,0
mp-557894,SiO2,5.718299999999999,0
mp-21642,Mn3(Ni10P3)2,0.0,0
mp-571555,InCl,2.1996,0
mp-1018819,NdTlCd,0.0,0
mp-736259,HgH4C4(NCl2)2,2.4703999999999997,0
mp-675102,Ce9GdO20,0.0,0
mp-1008826,OsN2,0.0,0
mp-3376,Sr2SnO4,2.5727,0
mp-647226,TaSbO4,2.3563,0
mp-763292,Ti3Mn3(SbO8)2,0.6120999999999999,0
mp-10856,Er(BC)2,0.0,0
mp-22012,Tb(MnGe)6,0.0,0
mp-1041292,Ba(CoO2)4,0.0,0
mp-24018,CaZnAsHO5,2.622,0
mp-973736,GeAs3,0.0,0
mp-6603,Sr2CeIrO6,0.0,0
mp-862996,Pm2CdIn,0.0,0
mp-23626,RbLi2(IO3)3,3.8184,0
mp-1042732,Mg2Fe3O8,0.0,0
mp-973464,LaEr3,0.0,0
mp-1045829,AlCu3(NiO3)4,0.0,0
mp-558924,Na5Ga3F14,5.2178,0
mp-555133,AsC2N(OF3)2,4.6508,0
mp-760172,Na7Ti16O32,0.0,0
mp-770887,BeCrO4,2.4299,0
mp-763908,V3O5F,0.30359999999999987,0
mp-570091,Rb(CoSe)2,0.0,0
mp-567657,K(CuSe)2,0.0,0
mp-12398,Mg(CoGe)6,0.0,0
mp-568286,C,2.0774999999999997,0
mp-640324,TmCuPbSe3,1.1235,0
mp-571233,TmTe,0.0,0
mp-865876,Ti2TcOs,0.0,0
mp-13467,Ce(GePd)2,0.0,0
mp-14482,SrNb6O16,1.6317,0
mp-1043077,Cu3(WO3)4,0.0,0
mp-567504,CrCl3,1.5182,0
mp-23059,Rb2SnCl6,2.5354,0
mp-771825,Er2TiO5,3.1680999999999995,0
mp-720712,Cr2H24(IN3)3,1.7647,0
mp-684798,Ag2Te,0.0,0
mp-561751,CsErS2,2.1449,0
mp-560845,Cu2As4S3Cl2,1.4078000000000004,0
mp-28360,Na3CrCl6,1.7196,0
mp-569408,K(CoAs)2,0.0,0
mp-1019572,CaAl2SiO6,4.549800000000001,0
mp-570409,PrAl3,0.0,0
mp-770352,Eu2NiO4,0.0,0
mp-758571,Al11TlO17,4.585100000000001,0
mp-27275,Li3BO3,5.1473,0
mp-5967,TiCoSb,1.0520000000000005,0
mp-23266,GeI4,1.996,0
mp-625145,H7ClO3,4.1696,0
mp-24019,H4NClO,5.4648,0
mp-573471,Li17Sn4,0.0,0
mp-7914,NaScO2,3.9799999999999995,0
mp-558667,S3N3ClO2,2.3052,0
mp-17682,Zr2Fe,0.0,0
mp-2201,PbSe,0.43100000000000005,0
mp-769317,Ca4Ta2O9,3.9210999999999996,0
mp-1056,Tb2O3,3.9006,0
mp-542079,K3La(PSe4)2,1.4575,0
mp-752684,BaTm2O4,2.8878999999999997,0
mp-779833,Hf2N2O,1.9989,0
mp-673117,Sn2P3O10,0.0,0
mp-781789,Li4NbIn3(PO4)6,2.6893000000000002,0
mp-761024,Na2Cd2O3,0.38549999999999995,0
mp-3700,LiYF4,7.8341,0
mp-22989,NaIO3,3.6962,0
mp-758393,Li3Ti2(PO4)3,0.0,0
mp-18704,CsLiBeF4,6.8736,0
mp-27169,KTa5O13,3.1482,0
mp-15684,K2CuAs,1.0674000000000001,0
mp-556737,Pr6Ti2S7O6,1.1657000000000002,0
mp-974631,K3Tm,0.0,0
mp-755752,Rb2Be2O3,2.2055,0
mp-851357,Fe2S,0.0,0
mp-31147,BaZnSi,0.0,0
mp-866943,Ca2SnS4,1.6421000000000001,0
mp-561434,Rb2Sn2Hg3S8,1.6569999999999998,0
mp-849780,La3H15I10O37,3.3704,0
mp-720294,AsH18N3O7,4.1735,0
mp-560374,YbNdS3,0.0,0
mp-558689,Ba2PrIrO6,0.0,0
mp-764651,LiFe2(BO3)2,1.6533000000000002,0
mp-997003,LaAuO2,2.7162,0
mp-998971,TiFeCoSi,0.0,0
mp-722381,CdH4S2O5,3.117,0
mp-2183,ThSe,0.0,0
mp-757758,LiTi3Nb(PO4)6,2.5172999999999996,0
mp-982773,Na3Tl,0.0,0
mp-28123,H7NF4,7.2568,0
mp-5839,TiPO4,0.06289999999999996,0
mp-8387,Tl6TeO6,1.5632999999999995,0
mp-781976,Li2CuF5,0.4593999999999998,0
mp-769524,Li11Nb4(Ni3O8)3,1.2260999999999997,0
mp-696272,HgHNO4,1.5568,0
mp-2755,SiTe2,0.0,0
mp-1042413,TaZnBiO5,2.9202000000000004,0
mp-655001,Li3BH6,0.874,0
mp-2573,NpAl3,0.0,0
mp-3046,Yb3Sn13Rh4,0.0,0
mp-6500,KRb2ScF6,6.5976,0